---------------------------------------
Begin Slurm Prolog: Nov-08-2022 10:11:19
Job ID:    215834
User ID:   bzhang376
Account:   hive-phanish6
Job name:  AbiTaNoS
Partition: hive
---------------------------------------
  ABINIT 9.6.1
  
 DeprecationWarning: 

     The files file has been deprecated in Abinit9 and will be removed in Abinit10.
     Use the syntax `abinit t01.abi` where t01.abi is an input with pseudopotentials e.g.

            pseudos = "al.psp8, as.psp8"


  Give name for formatted input file: 
Ta.in
  Give name for formatted output file:
Ta.out
  Give root name for generic input files:
abi
  Give root name for generic output files:
abo
  Give root name for generic temporary files:
tmp

--- !COMMENT
src_file: m_dtfil.F90
src_line: 1476
message: |
    Output file: Ta.out already exists.
...


--- !COMMENT
src_file: m_dtfil.F90
src_line: 1500
message: |
    Renaming old: Ta.out to: Ta.out0001
...


.Version 9.6.1 of ABINIT 
.(MPI version, prepared for a x86_64_linux_gnu10.3 computer) 

.Copyright (C) 1998-2021 ABINIT group . 
 ABINIT comes with ABSOLUTELY NO WARRANTY.
 It is free software, and you are welcome to redistribute it
 under certain conditions (GNU General Public License,
 see ~abinit/COPYING or http://www.gnu.org/copyleft/gpl.txt).

 ABINIT is a project of the Universite Catholique de Louvain,
 Corning Inc. and other collaborators, see ~abinit/doc/developers/contributors.txt .
 Please read https://docs.abinit.org/theory/acknowledgments for suggested
 acknowledgments of the ABINIT effort.
 For more information, see https://www.abinit.org .

.Starting date : Tue  8 Nov 2022.
- ( at 10h28 )
  

 ++++++++++++++++++++++++++++++++++++++++++++++++++++++++++++++++++++++++++++++

 === Build Information === 
  Version       : 9.6.1
  Build target  : x86_64_linux_gnu10.3
  Build date    : 20220727

 === Compiler Suite === 
  C compiler       : gnu10.3
  C++ compiler     : gnu10.3
  Fortran compiler : gnu10.3
  CFLAGS           : -g -O2
  CXXFLAGS         : -g -O2
  FCFLAGS          : -g -ffree-line-length-none -fallow-argument-mismatch     -I/usr/loc ...
  FC_LDFLAGS       : 

 === Optimizations === 
  Debug level        : basic
  Optimization level : standard
  Architecture       : intel_xeon

 === Multicore === 
  Parallel build : yes
  Parallel I/O   : 
  openMP support : no
  GPU support    : 

 === Connectors / Fallbacks === 
  LINALG flavor  : openblas
  FFT flavor     : fftw3
  HDF5           : yes
  NetCDF         : yes
  NetCDF Fortran : yes
  LibXC          : yes
  Wannier90      : no

 === Experimental features === 
  Exports             : 
  GW double-precision : 

 ++++++++++++++++++++++++++++++++++++++++++++++++++++++++++++++++++++++++++++++


 ++++++++++++++++++++++++++++++++++++++++++++++++++++++++++++++++++++++++++++++
 Default optimizations:
   -O2


 Optimizations for 43_ptgroups:
   -O0


 ++++++++++++++++++++++++++++++++++++++++++++++++++++++++++++++++++++++++++++++


 ++++++++++++++++++++++++++++++++++++++++++++++++++++++++++++++++++++++++++++++
 CPP options activated during the build:

                    CC_GNU                   CXX_GNU                    FC_GNU
 
              HAVE_ATOMPAW HAVE_FC_ALLOCATABLE_DT...             HAVE_FC_ASYNC
 
         HAVE_FC_BACKTRACE  HAVE_FC_COMMAND_ARGUMENT      HAVE_FC_COMMAND_LINE
 
        HAVE_FC_CONTIGUOUS           HAVE_FC_CPUTIME              HAVE_FC_EXIT
 
             HAVE_FC_FLUSH             HAVE_FC_GAMMA            HAVE_FC_GETENV
 
   HAVE_FC_IEEE_ARITHMETIC   HAVE_FC_IEEE_EXCEPTIONS          HAVE_FC_INT_QUAD
 
             HAVE_FC_IOMSG     HAVE_FC_ISO_C_BINDING  HAVE_FC_ISO_FORTRAN_2008
 
        HAVE_FC_LONG_LINES        HAVE_FC_MOVE_ALLOC  HAVE_FC_ON_THE_FLY_SHAPE
 
           HAVE_FC_PRIVATE         HAVE_FC_PROTECTED           HAVE_FC_SHIFTLR
 
         HAVE_FC_STREAM_IO            HAVE_FC_SYSTEM                HAVE_FFTW3
 
          HAVE_FORTRAN2003                 HAVE_HDF5        HAVE_LIBPAW_ABINIT
 
      HAVE_LIBTETRA_ABINIT                HAVE_LIBXC         HAVE_LINALG_AXPBY
 
        HAVE_LINALG_GEMM3M                  HAVE_MPI                 HAVE_MPI2
 
       HAVE_MPI_IALLGATHER       HAVE_MPI_IALLREDUCE        HAVE_MPI_IALLTOALL
 
       HAVE_MPI_IALLTOALLV           HAVE_MPI_IBCAST         HAVE_MPI_IGATHERV
 
        HAVE_MPI_INTEGER16               HAVE_MPI_IO HAVE_MPI_TYPE_CREATE_S...
 
               HAVE_NETCDF       HAVE_NETCDF_FORTRAN             HAVE_OS_LINUX
 
         HAVE_TIMER_ABINIT                                                      
 ++++++++++++++++++++++++++++++++++++++++++++++++++++++++++++++++++++++++++++++

- input  file    -> Ta.in
- output file    -> Ta.out
- root for input  files -> abi
- root for output files -> abo

-instrng: 63 lines of input have been read from file Ta.in


 Please give name of formatted atomic psp file (and finish with a newline character)
 For atom type 1, psp file is Ta_FRnoSOC.psp8
  read the values zionpsp= 13.0 , pspcod=   8 , lmax=   3

 inpspheads: deduce mpsang = 4, n1xccc = 2501.

======================================================= 
 invars1m : enter jdtset= 0

 symlatt: the Bravais lattice is cP (primitive cubic)
  xred   is defined in input file
 ingeo: takes atomic coordinates from input array xred

 symlatt: the Bravais lattice is cP (primitive cubic)

 symlatt: the Bravais lattice is cP (primitive cubic)

--- !COMMENT
src_file: m_symfind.F90
src_line: 1020
message: |
    The Bravais lattice determined only from the primitive
    vectors, bravais(1)=  7, is more symmetric
    than the real one, iholohedry=  1, obtained by taking into
    account the atomic positions. Start deforming the primitive vector set.
...


 symlatt: the Bravais lattice is mC (one-face-centered monoclinic)

--- !COMMENT
src_file: m_symfind.F90
src_line: 1029
message: |
    The Bravais lattice determined from modified primitive
    vectors, bravais(1)=  2, has a lower symmetry than before,
    but is still more symmetric than the real one, iholohedry=  1
    obtained by taking into account the atomic positions.
...


 symlatt: the Bravais lattice is aP (primitive triclinic)
 symspgr: spgroup=   1  P1   (=C1^1)
 For input ecut=  1.500000E+02 best grid ngfft=      72      72      72
       max ecut=  1.622567E+02

 ==== FFT mesh ====
  FFT mesh divisions ........................    72   72   72
  Augmented FFT divisions ...................    73   73   72
  FFT algorithm .............................   312
  FFT cache size ............................    16
 getmpw: optimal value of mpw= 21794

 Symmetries : space group P1 (#  1); Bravais aP (primitive triclinic)

 getdim_nloc : deduce lmnmax  =  62, lnmax  =  14,
                      lmnmaxso=  62, lnmaxso=  14.
memory: analysis of memory needs
================================================================================
 Values of the parameters that define the memory need of the present run
     intxc =       0    ionmov =       0      iscf =       7    lmnmax =      14
     lnmax =      14     mgfft =      72  mpssoang =       4    mqgrid =    3462
     natom =       2  nloc_mem =       1    nspden =       1   nspinor =       1
    nsppol =       1      nsym =       1    n1xccc =    2501    ntypat =       1
    occopt =       3   xclevel =       2
-    mband =          20        mffmem =           1         mkmem =         112
       mpw =       21794          nfft =      373248          nkpt =         112
================================================================================
P This job should need less than                     887.892 Mbytes of memory.
  Rough estimation (10% accuracy) of disk space for files :
_ WF disk file :    744.914 Mbytes ; DEN or POT disk file :      2.850 Mbytes.
================================================================================

 Biggest array : cg(disk), with    744.9141 MBytes.
 memana : allocated an array of    744.914 Mbytes, for testing purposes.
 memana: allocated     887.892Mbytes, for testing purposes. 
 The job will continue.
--------------------------------------------------------------------------------
------------- Echo of variables that govern the present computation ------------
--------------------------------------------------------------------------------
-
- outvars: echo of selected default values                                      
-   iomode0 =  0 , fftalg0 =312 , wfoptalg0 =  0
-
- outvars: echo of global parameters not present in the input file              
-  max_nthreads =    0
-
 -outvars: echo values of preprocessed input variables --------
 
 These variables are accessible in NetCDF format (abo_OUT.nc)

            acell      1.0000000000E+00  1.0000000000E+00  1.0000000000E+00 Bohr
              amu      1.80947900E+02
           diemac      1.00000000E+00
           diemix      3.00000000E-01
             ecut      1.50000000E+02 Hartree
           ecutsm      5.00000000E-01 Hartree
-          fftalg         312
           istwfk        2    0    0    3    0    0    0    0    0    0
                         0    0    0    0    0    0    6    0    0    7
                         0    0    0    0    0    0    0    0    0    0
                         0    0    0    0    0    0    0    0    0    0
                         0    0    0    0    0    0    0    0    0    0
                       outvar_i_n : Printing only first  50 k-points.
              ixc          11
              kpt      0.00000000E+00  0.00000000E+00  0.00000000E+00
                       1.66666667E-01  0.00000000E+00  0.00000000E+00
                       3.33333333E-01  0.00000000E+00  0.00000000E+00
                       5.00000000E-01  0.00000000E+00  0.00000000E+00
                       0.00000000E+00  1.66666667E-01  0.00000000E+00
                       1.66666667E-01  1.66666667E-01  0.00000000E+00
                       3.33333333E-01  1.66666667E-01  0.00000000E+00
                       5.00000000E-01  1.66666667E-01  0.00000000E+00
                      -3.33333333E-01  1.66666667E-01  0.00000000E+00
                      -1.66666667E-01  1.66666667E-01  0.00000000E+00
                       0.00000000E+00  3.33333333E-01  0.00000000E+00
                       1.66666667E-01  3.33333333E-01  0.00000000E+00
                       3.33333333E-01  3.33333333E-01  0.00000000E+00
                       5.00000000E-01  3.33333333E-01  0.00000000E+00
                      -3.33333333E-01  3.33333333E-01  0.00000000E+00
                      -1.66666667E-01  3.33333333E-01  0.00000000E+00
                       0.00000000E+00  5.00000000E-01  0.00000000E+00
                       1.66666667E-01  5.00000000E-01  0.00000000E+00
                       3.33333333E-01  5.00000000E-01  0.00000000E+00
                       5.00000000E-01  5.00000000E-01  0.00000000E+00
                       0.00000000E+00  0.00000000E+00  1.66666667E-01
                       1.66666667E-01  0.00000000E+00  1.66666667E-01
                       3.33333333E-01  0.00000000E+00  1.66666667E-01
                       5.00000000E-01  0.00000000E+00  1.66666667E-01
                      -3.33333333E-01  0.00000000E+00  1.66666667E-01
                      -1.66666667E-01  0.00000000E+00  1.66666667E-01
                       0.00000000E+00  1.66666667E-01  1.66666667E-01
                       1.66666667E-01  1.66666667E-01  1.66666667E-01
                       3.33333333E-01  1.66666667E-01  1.66666667E-01
                       5.00000000E-01  1.66666667E-01  1.66666667E-01
                      -3.33333333E-01  1.66666667E-01  1.66666667E-01
                      -1.66666667E-01  1.66666667E-01  1.66666667E-01
                       0.00000000E+00  3.33333333E-01  1.66666667E-01
                       1.66666667E-01  3.33333333E-01  1.66666667E-01
                       3.33333333E-01  3.33333333E-01  1.66666667E-01
                       5.00000000E-01  3.33333333E-01  1.66666667E-01
                      -3.33333333E-01  3.33333333E-01  1.66666667E-01
                      -1.66666667E-01  3.33333333E-01  1.66666667E-01
                       0.00000000E+00  5.00000000E-01  1.66666667E-01
                       1.66666667E-01  5.00000000E-01  1.66666667E-01
                       3.33333333E-01  5.00000000E-01  1.66666667E-01
                       5.00000000E-01  5.00000000E-01  1.66666667E-01
                      -3.33333333E-01  5.00000000E-01  1.66666667E-01
                      -1.66666667E-01  5.00000000E-01  1.66666667E-01
                       0.00000000E+00 -3.33333333E-01  1.66666667E-01
                       1.66666667E-01 -3.33333333E-01  1.66666667E-01
                       3.33333333E-01 -3.33333333E-01  1.66666667E-01
                       5.00000000E-01 -3.33333333E-01  1.66666667E-01
                      -3.33333333E-01 -3.33333333E-01  1.66666667E-01
                      -1.66666667E-01 -3.33333333E-01  1.66666667E-01
                       outvar_i_n : Printing only first  50 k-points.
         kptrlatt        6    0    0      0    6    0      0    0    6
          kptrlen      3.76692839E+01
P           mkmem         112
            natom           2
            nband          20
            ngfft          72      72      72
             nkpt         112
            nstep          60
             nsym           1
           ntypat           1
              occ      2.000000  2.000000  2.000000  2.000000  2.000000  2.000000
                       2.000000  2.000000  2.000000  2.000000  2.000000  2.000000
                       2.000000  0.000000  0.000000  0.000000  0.000000  0.000000
                       0.000000  0.000000
                       2.000000  2.000000  2.000000  2.000000  2.000000  2.000000
                       2.000000  2.000000  2.000000  2.000000  2.000000  2.000000
                       2.000000  0.000000  0.000000  0.000000  0.000000  0.000000
                       0.000000  0.000000
                       2.000000  2.000000  2.000000  2.000000  2.000000  2.000000
                       2.000000  2.000000  2.000000  2.000000  2.000000  2.000000
                       2.000000  0.000000  0.000000  0.000000  0.000000  0.000000
                       0.000000  0.000000
                       2.000000  2.000000  2.000000  2.000000  2.000000  2.000000
                       2.000000  2.000000  2.000000  2.000000  2.000000  2.000000
                       2.000000  0.000000  0.000000  0.000000  0.000000  0.000000
                       0.000000  0.000000
                       2.000000  2.000000  2.000000  2.000000  2.000000  2.000000
                       2.000000  2.000000  2.000000  2.000000  2.000000  2.000000
                       2.000000  0.000000  0.000000  0.000000  0.000000  0.000000
                       0.000000  0.000000
                       2.000000  2.000000  2.000000  2.000000  2.000000  2.000000
                       2.000000  2.000000  2.000000  2.000000  2.000000  2.000000
                       2.000000  0.000000  0.000000  0.000000  0.000000  0.000000
                       0.000000  0.000000
                       2.000000  2.000000  2.000000  2.000000  2.000000  2.000000
                       2.000000  2.000000  2.000000  2.000000  2.000000  2.000000
                       2.000000  0.000000  0.000000  0.000000  0.000000  0.000000
                       0.000000  0.000000
                       2.000000  2.000000  2.000000  2.000000  2.000000  2.000000
                       2.000000  2.000000  2.000000  2.000000  2.000000  2.000000
                       2.000000  0.000000  0.000000  0.000000  0.000000  0.000000
                       0.000000  0.000000
                       2.000000  2.000000  2.000000  2.000000  2.000000  2.000000
                       2.000000  2.000000  2.000000  2.000000  2.000000  2.000000
                       2.000000  0.000000  0.000000  0.000000  0.000000  0.000000
                       0.000000  0.000000
                       2.000000  2.000000  2.000000  2.000000  2.000000  2.000000
                       2.000000  2.000000  2.000000  2.000000  2.000000  2.000000
                       2.000000  0.000000  0.000000  0.000000  0.000000  0.000000
                       0.000000  0.000000
                       2.000000  2.000000  2.000000  2.000000  2.000000  2.000000
                       2.000000  2.000000  2.000000  2.000000  2.000000  2.000000
                       2.000000  0.000000  0.000000  0.000000  0.000000  0.000000
                       0.000000  0.000000
                       2.000000  2.000000  2.000000  2.000000  2.000000  2.000000
                       2.000000  2.000000  2.000000  2.000000  2.000000  2.000000
                       2.000000  0.000000  0.000000  0.000000  0.000000  0.000000
                       0.000000  0.000000
                       2.000000  2.000000  2.000000  2.000000  2.000000  2.000000
                       2.000000  2.000000  2.000000  2.000000  2.000000  2.000000
                       2.000000  0.000000  0.000000  0.000000  0.000000  0.000000
                       0.000000  0.000000
                       2.000000  2.000000  2.000000  2.000000  2.000000  2.000000
                       2.000000  2.000000  2.000000  2.000000  2.000000  2.000000
                       2.000000  0.000000  0.000000  0.000000  0.000000  0.000000
                       0.000000  0.000000
                       2.000000  2.000000  2.000000  2.000000  2.000000  2.000000
                       2.000000  2.000000  2.000000  2.000000  2.000000  2.000000
                       2.000000  0.000000  0.000000  0.000000  0.000000  0.000000
                       0.000000  0.000000
                       2.000000  2.000000  2.000000  2.000000  2.000000  2.000000
                       2.000000  2.000000  2.000000  2.000000  2.000000  2.000000
                       2.000000  0.000000  0.000000  0.000000  0.000000  0.000000
                       0.000000  0.000000
                       2.000000  2.000000  2.000000  2.000000  2.000000  2.000000
                       2.000000  2.000000  2.000000  2.000000  2.000000  2.000000
                       2.000000  0.000000  0.000000  0.000000  0.000000  0.000000
                       0.000000  0.000000
                       2.000000  2.000000  2.000000  2.000000  2.000000  2.000000
                       2.000000  2.000000  2.000000  2.000000  2.000000  2.000000
                       2.000000  0.000000  0.000000  0.000000  0.000000  0.000000
                       0.000000  0.000000
                       2.000000  2.000000  2.000000  2.000000  2.000000  2.000000
                       2.000000  2.000000  2.000000  2.000000  2.000000  2.000000
                       2.000000  0.000000  0.000000  0.000000  0.000000  0.000000
                       0.000000  0.000000
                       2.000000  2.000000  2.000000  2.000000  2.000000  2.000000
                       2.000000  2.000000  2.000000  2.000000  2.000000  2.000000
                       2.000000  0.000000  0.000000  0.000000  0.000000  0.000000
                       0.000000  0.000000
                       2.000000  2.000000  2.000000  2.000000  2.000000  2.000000
                       2.000000  2.000000  2.000000  2.000000  2.000000  2.000000
                       2.000000  0.000000  0.000000  0.000000  0.000000  0.000000
                       0.000000  0.000000
                       2.000000  2.000000  2.000000  2.000000  2.000000  2.000000
                       2.000000  2.000000  2.000000  2.000000  2.000000  2.000000
                       2.000000  0.000000  0.000000  0.000000  0.000000  0.000000
                       0.000000  0.000000
                       2.000000  2.000000  2.000000  2.000000  2.000000  2.000000
                       2.000000  2.000000  2.000000  2.000000  2.000000  2.000000
                       2.000000  0.000000  0.000000  0.000000  0.000000  0.000000
                       0.000000  0.000000
                       2.000000  2.000000  2.000000  2.000000  2.000000  2.000000
                       2.000000  2.000000  2.000000  2.000000  2.000000  2.000000
                       2.000000  0.000000  0.000000  0.000000  0.000000  0.000000
                       0.000000  0.000000
                       2.000000  2.000000  2.000000  2.000000  2.000000  2.000000
                       2.000000  2.000000  2.000000  2.000000  2.000000  2.000000
                       2.000000  0.000000  0.000000  0.000000  0.000000  0.000000
                       0.000000  0.000000
                       2.000000  2.000000  2.000000  2.000000  2.000000  2.000000
                       2.000000  2.000000  2.000000  2.000000  2.000000  2.000000
                       2.000000  0.000000  0.000000  0.000000  0.000000  0.000000
                       0.000000  0.000000
                       2.000000  2.000000  2.000000  2.000000  2.000000  2.000000
                       2.000000  2.000000  2.000000  2.000000  2.000000  2.000000
                       2.000000  0.000000  0.000000  0.000000  0.000000  0.000000
                       0.000000  0.000000
                       2.000000  2.000000  2.000000  2.000000  2.000000  2.000000
                       2.000000  2.000000  2.000000  2.000000  2.000000  2.000000
                       2.000000  0.000000  0.000000  0.000000  0.000000  0.000000
                       0.000000  0.000000
                       2.000000  2.000000  2.000000  2.000000  2.000000  2.000000
                       2.000000  2.000000  2.000000  2.000000  2.000000  2.000000
                       2.000000  0.000000  0.000000  0.000000  0.000000  0.000000
                       0.000000  0.000000
                       2.000000  2.000000  2.000000  2.000000  2.000000  2.000000
                       2.000000  2.000000  2.000000  2.000000  2.000000  2.000000
                       2.000000  0.000000  0.000000  0.000000  0.000000  0.000000
                       0.000000  0.000000
                       2.000000  2.000000  2.000000  2.000000  2.000000  2.000000
                       2.000000  2.000000  2.000000  2.000000  2.000000  2.000000
                       2.000000  0.000000  0.000000  0.000000  0.000000  0.000000
                       0.000000  0.000000
                       2.000000  2.000000  2.000000  2.000000  2.000000  2.000000
                       2.000000  2.000000  2.000000  2.000000  2.000000  2.000000
                       2.000000  0.000000  0.000000  0.000000  0.000000  0.000000
                       0.000000  0.000000
                       2.000000  2.000000  2.000000  2.000000  2.000000  2.000000
                       2.000000  2.000000  2.000000  2.000000  2.000000  2.000000
                       2.000000  0.000000  0.000000  0.000000  0.000000  0.000000
                       0.000000  0.000000
                       2.000000  2.000000  2.000000  2.000000  2.000000  2.000000
                       2.000000  2.000000  2.000000  2.000000  2.000000  2.000000
                       2.000000  0.000000  0.000000  0.000000  0.000000  0.000000
                       0.000000  0.000000
                       2.000000  2.000000  2.000000  2.000000  2.000000  2.000000
                       2.000000  2.000000  2.000000  2.000000  2.000000  2.000000
                       2.000000  0.000000  0.000000  0.000000  0.000000  0.000000
                       0.000000  0.000000
                       2.000000  2.000000  2.000000  2.000000  2.000000  2.000000
                       2.000000  2.000000  2.000000  2.000000  2.000000  2.000000
                       2.000000  0.000000  0.000000  0.000000  0.000000  0.000000
                       0.000000  0.000000
                       2.000000  2.000000  2.000000  2.000000  2.000000  2.000000
                       2.000000  2.000000  2.000000  2.000000  2.000000  2.000000
                       2.000000  0.000000  0.000000  0.000000  0.000000  0.000000
                       0.000000  0.000000
                       2.000000  2.000000  2.000000  2.000000  2.000000  2.000000
                       2.000000  2.000000  2.000000  2.000000  2.000000  2.000000
                       2.000000  0.000000  0.000000  0.000000  0.000000  0.000000
                       0.000000  0.000000
                       2.000000  2.000000  2.000000  2.000000  2.000000  2.000000
                       2.000000  2.000000  2.000000  2.000000  2.000000  2.000000
                       2.000000  0.000000  0.000000  0.000000  0.000000  0.000000
                       0.000000  0.000000
                       2.000000  2.000000  2.000000  2.000000  2.000000  2.000000
                       2.000000  2.000000  2.000000  2.000000  2.000000  2.000000
                       2.000000  0.000000  0.000000  0.000000  0.000000  0.000000
                       0.000000  0.000000
                       2.000000  2.000000  2.000000  2.000000  2.000000  2.000000
                       2.000000  2.000000  2.000000  2.000000  2.000000  2.000000
                       2.000000  0.000000  0.000000  0.000000  0.000000  0.000000
                       0.000000  0.000000
                       2.000000  2.000000  2.000000  2.000000  2.000000  2.000000
                       2.000000  2.000000  2.000000  2.000000  2.000000  2.000000
                       2.000000  0.000000  0.000000  0.000000  0.000000  0.000000
                       0.000000  0.000000
                       2.000000  2.000000  2.000000  2.000000  2.000000  2.000000
                       2.000000  2.000000  2.000000  2.000000  2.000000  2.000000
                       2.000000  0.000000  0.000000  0.000000  0.000000  0.000000
                       0.000000  0.000000
                       2.000000  2.000000  2.000000  2.000000  2.000000  2.000000
                       2.000000  2.000000  2.000000  2.000000  2.000000  2.000000
                       2.000000  0.000000  0.000000  0.000000  0.000000  0.000000
                       0.000000  0.000000
                       2.000000  2.000000  2.000000  2.000000  2.000000  2.000000
                       2.000000  2.000000  2.000000  2.000000  2.000000  2.000000
                       2.000000  0.000000  0.000000  0.000000  0.000000  0.000000
                       0.000000  0.000000
                       2.000000  2.000000  2.000000  2.000000  2.000000  2.000000
                       2.000000  2.000000  2.000000  2.000000  2.000000  2.000000
                       2.000000  0.000000  0.000000  0.000000  0.000000  0.000000
                       0.000000  0.000000
                       2.000000  2.000000  2.000000  2.000000  2.000000  2.000000
                       2.000000  2.000000  2.000000  2.000000  2.000000  2.000000
                       2.000000  0.000000  0.000000  0.000000  0.000000  0.000000
                       0.000000  0.000000
                       2.000000  2.000000  2.000000  2.000000  2.000000  2.000000
                       2.000000  2.000000  2.000000  2.000000  2.000000  2.000000
                       2.000000  0.000000  0.000000  0.000000  0.000000  0.000000
                       0.000000  0.000000
                       2.000000  2.000000  2.000000  2.000000  2.000000  2.000000
                       2.000000  2.000000  2.000000  2.000000  2.000000  2.000000
                       2.000000  0.000000  0.000000  0.000000  0.000000  0.000000
                       0.000000  0.000000
                       2.000000  2.000000  2.000000  2.000000  2.000000  2.000000
                       2.000000  2.000000  2.000000  2.000000  2.000000  2.000000
                       2.000000  0.000000  0.000000  0.000000  0.000000  0.000000
                       0.000000  0.000000
                       prtocc : prtvol=0, do not print more k-points.
           occopt           3
           prtden           0
           prteig           0
            prtwf           0
            rprim      6.2782139751E+00  0.0000000000E+00  0.0000000000E+00
                       0.0000000000E+00  6.2782139751E+00  0.0000000000E+00
                       0.0000000000E+00  0.0000000000E+00  6.2782139751E+00
          spgroup           1
           toldfe      5.00000000E-05 Hartree
           tsmear      1.00000000E-03 Hartree
            typat      1  1
              wtk        0.00463    0.00926    0.00926    0.00463    0.00926    0.00926
                         0.00926    0.00926    0.00926    0.00926    0.00926    0.00926
                         0.00926    0.00926    0.00926    0.00926    0.00463    0.00926
                         0.00926    0.00463    0.00926    0.00926    0.00926    0.00926
                         0.00926    0.00926    0.00926    0.00926    0.00926    0.00926
                         0.00926    0.00926    0.00926    0.00926    0.00926    0.00926
                         0.00926    0.00926    0.00926    0.00926    0.00926    0.00926
                         0.00926    0.00926    0.00926    0.00926    0.00926    0.00926
                         0.00926    0.00926
                       outvars : Printing only first  50 k-points.
           xangst      0.0000000000E+00  0.0000000000E+00  0.0000000000E+00
                       1.6611438731E+00  1.6611438731E+00  1.6611438731E+00
            xcart      0.0000000000E+00  0.0000000000E+00  0.0000000000E+00
                       3.1391069875E+00  3.1391069875E+00  3.1391069875E+00
             xred      0.0000000000E+00  0.0000000000E+00  0.0000000000E+00
                       5.0000000000E-01  5.0000000000E-01  5.0000000000E-01
            znucl       73.00000

================================================================================

 chkinp: Checking input parameters for consistency.
 DATA TYPE INFORMATION: 
 REAL:      Data type name: REAL(DP) 
            Kind value:      8
            Precision:      15
            Smallest nonnegligible quantity relative to 1: 0.22204460E-015
            Smallest positive number:                      0.22250739E-307
            Largest representable number:                  0.17976931E+309
 INTEGER:   Data type name: INTEGER(default) 
            Kind value: 4
            Bit size:   32
            Largest representable number: 2147483647
 LOGICAL:   Data type name: LOGICAL 
            Kind value: 4
 CHARACTER: Data type name: CHARACTER             Kind value: 1

  ==== OpenMP parallelism is OFF ====
 
  ==== Using MPI-2 specifications ==== 
  MPI-IO support is ON
  xmpi_tag_ub ................    268435455
  xmpi_bsize_ch ..............            1
  xmpi_bsize_int .............            4
  xmpi_bsize_sp ..............            4
  xmpi_bsize_dp ..............            8
  xmpi_bsize_spc .............            8
  xmpi_bsize_dpc .............           16
  xmpio_bsize_frm ............            4
  xmpi_address_kind ..........            8
  xmpi_offset_kind ...........            8
  MPI_WTICK ..................    1.0000000000000001E-009

================================================================================
== DATASET  1 ==================================================================
-   mpi_nproc: 1, omp_nthreads: -1 (-1 if OMP is not activated)


--- !COMMENT
src_file: m_xgScalapack.F90
src_line: 236
message: |
    xgScalapack in auto mode
...


 getdim_nloc : deduce lmnmax  =  62, lnmax  =  14,
                      lmnmaxso=  62, lnmaxso=  14.
 Exchange-correlation functional for the present dataset will be:
  GGA: Perdew-Burke-Ernzerhof functional - ixc=11
 Citation for XC functional:
  J.P.Perdew, K.Burke, M.Ernzerhof, PRL 77, 3865 (1996)

 Unit cell volume ucvol=  2.4746190E+02 bohr^3
 Angles (23,13,12)=  9.00000000E+01  9.00000000E+01  9.00000000E+01 degrees

 getcut: wavevector=  0.0000  0.0000  0.0000  ngfft=  72  72  72
         ecut(hartree)=    150.000   => boxcut(ratio)=   2.08011
- pspini: atom type   1  psp file is Ta_FRnoSOC.psp8
- pspatm: opening atomic psp file    Ta_FRnoSOC.psp8
- Ta    ONCVPSP-3.3.0  r_core=   1.71294   1.71294   1.71294   2.25368
- 73.00000  13.00000    180420                znucl, zion, pspdat
    8   11    3    4       600   0.00000      pspcod,pspxc,lmax,lloc,mmax,r2well
    5.99000000000000    5.00000000000000    0.00000000000000   rchrg,fchrg,qchrg
     nproj     2     4     4     4
     extension_switch     0
  pspatm : epsatm=   21.66001528
         --- l  ekb(1:nproj) -->
             0    1.400318   11.076551
             1    9.398993    1.459541    0.034652    0.000451
             2    1.879630    0.241292    0.000766    0.000045
             3    5.007275    0.253854    0.002471    0.000093
 pspatm: atomic psp has been read  and splines computed

   1.12632079E+03                                ecore*ucvol(ha*bohr**3)
 ==== Info on pseudopotentials ====
  Norm-conserving pseudopotentials
  Number of pseudopotentials ..    1
  Number of types of atoms   ..    1
  Scalar calculation (no spin-orbit term)
  Nonlocal part applied using Legendre polynomials
  Max number of non-local projectors over l and type   4
  Highest angular momentum +1 .......   4
  Max number of (l,n)   components ..  14
  Max number of (l,m,n) components ..  14

 Pseudo-Core Charge Info: 
   Number of radial points for pseudo-core charge .. 2501
   XC core-correction treatment (optnlxccc) ........    1
   Radius for pseudo-core charge for each type ..... 

  - Atom type    1 has pseudo-core radius ..  5.9900

 Info on the Q-grid used for form factors in spline form: 
   Number of q-points for radial functions ffspl ..   3462
   Number of q-points for vlspl ...................   3462
   vloc is computed in Reciprocal Space
   model core charge treated in real-space

  XC functional for type 1 is 11
  Pseudo valence available: no

 wfconv:    20 bands initialized randomly with npw= 10912, for ikpt=     1
 wfconv:    20 bands initialized randomly with npw= 21755, for ikpt=     2
 wfconv:    20 bands initialized randomly with npw= 21706, for ikpt=     3
 wfconv:    20 bands initialized randomly with npw= 10865, for ikpt=     4
 wfconv:    20 bands initialized randomly with npw= 21755, for ikpt=     5
 wfconv:    20 bands initialized randomly with npw= 21725, for ikpt=     6
 wfconv:    20 bands initialized randomly with npw= 21738, for ikpt=     7
 wfconv:    20 bands initialized randomly with npw= 21706, for ikpt=     8
 wfconv:    20 bands initialized randomly with npw= 21738, for ikpt=     9
 wfconv:    20 bands initialized randomly with npw= 21725, for ikpt=    10
 wfconv:    20 bands initialized randomly with npw= 21706, for ikpt=    11
 wfconv:    20 bands initialized randomly with npw= 21738, for ikpt=    12
 wfconv:    20 bands initialized randomly with npw= 21682, for ikpt=    13
 wfconv:    20 bands initialized randomly with npw= 21688, for ikpt=    14
 wfconv:    20 bands initialized randomly with npw= 21682, for ikpt=    15
 wfconv:    20 bands initialized randomly with npw= 21738, for ikpt=    16
 wfconv:    20 bands initialized randomly with npw= 10865, for ikpt=    17
 wfconv:    20 bands initialized randomly with npw= 21706, for ikpt=    18
 wfconv:    20 bands initialized randomly with npw= 21688, for ikpt=    19
 wfconv:    20 bands initialized randomly with npw= 10856, for ikpt=    20
 wfconv:    20 bands initialized randomly with npw= 21755, for ikpt=    21
 wfconv:    20 bands initialized randomly with npw= 21725, for ikpt=    22
 wfconv:    20 bands initialized randomly with npw= 21738, for ikpt=    23
 wfconv:    20 bands initialized randomly with npw= 21706, for ikpt=    24
 wfconv:    20 bands initialized randomly with npw= 21738, for ikpt=    25
 wfconv:    20 bands initialized randomly with npw= 21725, for ikpt=    26
 wfconv:    20 bands initialized randomly with npw= 21725, for ikpt=    27
 wfconv:    20 bands initialized randomly with npw= 21794, for ikpt=    28
 wfconv:    20 bands initialized randomly with npw= 21709, for ikpt=    29
 wfconv:    20 bands initialized randomly with npw= 21690, for ikpt=    30
 wfconv:    20 bands initialized randomly with npw= 21709, for ikpt=    31
 wfconv:    20 bands initialized randomly with npw= 21794, for ikpt=    32
 wfconv:    20 bands initialized randomly with npw= 21738, for ikpt=    33
 wfconv:    20 bands initialized randomly with npw= 21709, for ikpt=    34
 wfconv:    20 bands initialized randomly with npw= 21687, for ikpt=    35
 wfconv:    20 bands initialized randomly with npw= 21710, for ikpt=    36
 wfconv:    20 bands initialized randomly with npw= 21687, for ikpt=    37
 wfconv:    20 bands initialized randomly with npw= 21709, for ikpt=    38
 wfconv:    20 bands initialized randomly with npw= 21706, for ikpt=    39
 wfconv:    20 bands initialized randomly with npw= 21690, for ikpt=    40
 wfconv:    20 bands initialized randomly with npw= 21710, for ikpt=    41
 wfconv:    20 bands initialized randomly with npw= 21700, for ikpt=    42
 wfconv:    20 bands initialized randomly with npw= 21710, for ikpt=    43
 wfconv:    20 bands initialized randomly with npw= 21690, for ikpt=    44
 wfconv:    20 bands initialized randomly with npw= 21738, for ikpt=    45
 wfconv:    20 bands initialized randomly with npw= 21709, for ikpt=    46
 wfconv:    20 bands initialized randomly with npw= 21687, for ikpt=    47
 wfconv:    20 bands initialized randomly with npw= 21710, for ikpt=    48
 wfconv:    20 bands initialized randomly with npw= 21687, for ikpt=    49
 wfconv:    20 bands initialized randomly with npw= 21709, for ikpt=    50
_setup2: Arith. and geom. avg. npw (full set) are   21715.662   21715.645
 initro: for itypat=  1, take decay length=      0.8000,
 initro: indeed, coreel=     60.0000, nval= 13 and densty=  0.0000E+00.

================================================================================

 getcut: wavevector=  0.0000  0.0000  0.0000  ngfft=  72  72  72
         ecut(hartree)=    150.000   => boxcut(ratio)=   2.08011

 1/G**2 cut-off applied in the following step : cutoff-mode = CRYSTAL

 1/G**2 cut-off applied in the following step : cutoff-mode = CRYSTAL

 1/G**2 cut-off applied in the following step : cutoff-mode = CRYSTAL

 ITER STEP NUMBER     1
 Max number of non-self-consistent loops: 2
 newocc: new Fermi energy is       0.361715 , with nelect=     26.000000, Number of bisection calls: 49
 mkrho: echo density (plane-wave part only)
 Total charge density [el/Bohr^3]
      Maximum=    9.1571E-01  at reduced coord.    0.4306    0.4167    0.4306
      Minimum=    1.4512E-02  at reduced coord.    0.7639    0.0000    0.5000
   Integrated=    2.6000E+01
 Total charge density [el/Bohr^3]
      Maximum=    9.1571E-01  at reduced coord.    0.4306    0.4167    0.4306
      Minimum=    1.4512E-02  at reduced coord.    0.7639    0.0000    0.5000
   Integrated=    2.6000E+01

 1/G**2 cut-off applied in the following step : cutoff-mode = CRYSTAL
 ETOT  1  -128.63948850546    -1.286E+02 4.617E-01 4.976E+04
 scprqt: <Vxc>= -4.3784346E-01 hartree

 Simple mixing update:
  residual square of the potential:    4478.3046367059878
{SCF_istep: 1 , Vnl|psi>: 22400 , wall_time: ' 08:20 [minutes] '} <<< TIME

 ITER STEP NUMBER     2
 Max number of non-self-consistent loops: 2
 newocc: new Fermi energy is       0.485245 , with nelect=     26.000000, Number of bisection calls: 48
 mkrho: echo density (plane-wave part only)
 Total charge density [el/Bohr^3]
      Maximum=    8.2050E-01  at reduced coord.    0.9306    0.0833    0.0694
      Minimum=    2.3729E-02  at reduced coord.    0.5000    0.5000    0.0000
   Integrated=    2.6000E+01
 Total charge density [el/Bohr^3]
      Maximum=    8.2050E-01  at reduced coord.    0.9306    0.0833    0.0694
      Minimum=    2.3729E-02  at reduced coord.    0.5000    0.5000    0.0000
   Integrated=    2.6000E+01
 ETOT  2  -129.99164793603    -1.352E+00 2.581E-02 1.042E+04
 scprqt: <Vxc>= -4.6285320E-01 hartree

 Pulay update with  1 previous iterations:
 mixing of old trial potential: alpha(m:m-4)=   1.83     -0.826
{SCF_istep: 2 , Vnl|psi>: 21673 , wall_time: ' 08:04 [minutes] '} <<< TIME

 ITER STEP NUMBER     3
 newocc: new Fermi energy is       0.501513 , with nelect=     26.000000, Number of bisection calls: 49
 mkrho: echo density (plane-wave part only)
 Total charge density [el/Bohr^3]
      Maximum=    7.5410E-01  at reduced coord.    0.5694    0.4306    0.5833
      Minimum=    3.0995E-02  at reduced coord.    0.0000    0.0000    0.5000
   Integrated=    2.6000E+01
 Total charge density [el/Bohr^3]
      Maximum=    7.5410E-01  at reduced coord.    0.5694    0.4306    0.5833
      Minimum=    3.0995E-02  at reduced coord.    0.0000    0.0000    0.5000
   Integrated=    2.6000E+01
 ETOT  3  -130.28550061653    -2.939E-01 2.707E-02 2.291E+02
 scprqt: <Vxc>= -4.7708961E-01 hartree

 Pulay update with  2 previous iterations:
 mixing of old trial potential: alpha(m:m-4)=  0.581      0.794     -0.375
{SCF_istep: 3 , Vnl|psi>: 10209 , wall_time: ' 03:52 [minutes] '} <<< TIME

 ITER STEP NUMBER     4
 newocc: new Fermi energy is       0.487858 , with nelect=     26.000000, Number of bisection calls: 49
 mkrho: echo density (plane-wave part only)
 Total charge density [el/Bohr^3]
      Maximum=    7.4876E-01  at reduced coord.    0.4306    0.5833    0.5694
      Minimum=    3.1917E-02  at reduced coord.    0.0000    0.5000    0.0000
   Integrated=    2.6000E+01
 Total charge density [el/Bohr^3]
      Maximum=    7.4876E-01  at reduced coord.    0.4306    0.5833    0.5694
      Minimum=    3.1917E-02  at reduced coord.    0.0000    0.5000    0.0000
   Integrated=    2.6000E+01
 ETOT  4  -130.29040493816    -4.904E-03 9.922E-03 3.357E+01
 scprqt: <Vxc>= -4.7753709E-01 hartree

 Pulay update with  3 previous iterations:
 mixing of old trial potential: alpha(m:m-4)=   2.51     -0.961      -1.01      0.457
{SCF_istep: 4 , Vnl|psi>: 10743 , wall_time: ' 04:04 [minutes] '} <<< TIME

 ITER STEP NUMBER     5
 newocc: new Fermi energy is       0.488148 , with nelect=     26.000000, Number of bisection calls: 48
 mkrho: echo density (plane-wave part only)
 Total charge density [el/Bohr^3]
      Maximum=    7.4562E-01  at reduced coord.    0.9167    0.9306    0.0694
      Minimum=    3.2084E-02  at reduced coord.    0.5000    0.0000    0.5000
   Integrated=    2.6000E+01
 Total charge density [el/Bohr^3]
      Maximum=    7.4562E-01  at reduced coord.    0.9167    0.9306    0.0694
      Minimum=    3.2084E-02  at reduced coord.    0.5000    0.0000    0.5000
   Integrated=    2.6000E+01
 ETOT  5  -130.29046820331    -6.327E-05 3.053E-03 1.877E+01
 scprqt: <Vxc>= -4.7805969E-01 hartree

 Pulay update with  4 previous iterations:
 mixing of old trial potential: alpha(m:m-4)=   1.62      -1.21      0.579     -0.112E-01  0.200E-01
{SCF_istep: 5 , Vnl|psi>: 10341 , wall_time: ' 03:55 [minutes] '} <<< TIME

 ITER STEP NUMBER     6
 newocc: new Fermi energy is       0.486929 , with nelect=     26.000000, Number of bisection calls: 49
 mkrho: echo density (plane-wave part only)
 Total charge density [el/Bohr^3]
      Maximum=    7.4597E-01  at reduced coord.    0.9167    0.9306    0.0694
      Minimum=    3.2023E-02  at reduced coord.    0.5000    0.5000    0.0000
   Integrated=    2.6000E+01
 Total charge density [el/Bohr^3]
      Maximum=    7.4597E-01  at reduced coord.    0.9167    0.9306    0.0694
      Minimum=    3.2023E-02  at reduced coord.    0.5000    0.5000    0.0000
   Integrated=    2.6000E+01
 ETOT  6  -130.29090604497    -4.378E-04 2.157E-03 8.001E-02
 scprqt: <Vxc>= -4.7776237E-01 hartree

 Pulay update with  5 previous iterations:
 mixing of old trial potential: alpha(m:m-4)=   1.88      -1.44       1.14     -0.538     -0.424E-01
{SCF_istep: 6 , Vnl|psi>: 10414 , wall_time: ' 03:56 [minutes] '} <<< TIME

 ITER STEP NUMBER     7
 newocc: new Fermi energy is       0.487162 , with nelect=     26.000000, Number of bisection calls: 49
 mkrho: echo density (plane-wave part only)
 Total charge density [el/Bohr^3]
      Maximum=    7.4614E-01  at reduced coord.    0.9167    0.9306    0.0694
      Minimum=    3.2012E-02  at reduced coord.    0.0000    0.5000    0.5000
   Integrated=    2.6000E+01
 Total charge density [el/Bohr^3]
      Maximum=    7.4614E-01  at reduced coord.    0.9167    0.9306    0.0694
      Minimum=    3.2012E-02  at reduced coord.    0.0000    0.5000    0.5000
   Integrated=    2.6000E+01
 ETOT  7  -130.29090786191    -1.817E-06 5.544E-04 1.141E-02
 scprqt: <Vxc>= -4.7773230E-01 hartree

 Pulay update with  6 previous iterations:
 mixing of old trial potential: alpha(m:m-4)=   1.73     -0.721     -0.226E-01  0.205E-01 -0.433E-02
{SCF_istep: 7 , Vnl|psi>: 10525 , wall_time: ' 03:57 [minutes] '} <<< TIME

 ITER STEP NUMBER     8
 newocc: new Fermi energy is       0.487202 , with nelect=     26.000000, Number of bisection calls: 49
 mkrho: echo density (plane-wave part only)
 Total charge density [el/Bohr^3]
      Maximum=    7.4613E-01  at reduced coord.    0.4167    0.5694    0.5694
      Minimum=    3.2028E-02  at reduced coord.    0.0000    0.5000    0.0000
   Integrated=    2.6000E+01
 Total charge density [el/Bohr^3]
      Maximum=    7.4613E-01  at reduced coord.    0.4167    0.5694    0.5694
      Minimum=    3.2028E-02  at reduced coord.    0.0000    0.5000    0.0000
   Integrated=    2.6000E+01
 ETOT  8  -130.29090810982    -2.479E-07 4.258E-04 5.071E-04
 scprqt: <Vxc>= -4.7773905E-01 hartree

 At SCF step    8, etot is converged : 
  for the second time, diff in etot=  2.479E-07 < toldfe=  5.000E-05
 
 -------------------------------------------------------------------------------------------------
 Ekinetic   = :     3.426858E+01 Ha ,    9.324955E+02 eV
 Evext_l    = :    -6.576410E+01 Ha ,   -1.789532E+03 eV
 Evext_nl   = :     9.406234E+00 Ha ,    2.559567E+02 eV
 Epsp_core  = :     4.551492E+00 Ha ,    1.238524E+02 eV
 Ehartree   = :     1.488695E+01 Ha ,    4.050944E+02 eV
 Exc_ks     = :    -2.967684E+01 Ha ,   -8.075479E+02 eV
 Enn        = :    -9.796265E+01 Ha ,   -2.665699E+03 eV
 -------------------------------------------------------------------------------------------------
 Etot       = :    -1.302903E+02 Ha ,   -3.545380E+03 eV
 -------------------------------------------------------------------------------------------------

 Cartesian components of stress tensor (hartree/bohr^3)
  sigma(1 1)=  1.83453210E-06  sigma(3 2)= -8.24140642E-09
  sigma(2 2)=  1.89059561E-06  sigma(3 1)=  8.03487620E-08
  sigma(3 3)=  1.90764315E-06  sigma(2 1)= -1.07238989E-07

- Creating netcdf file WITHOUT MPI-IO support: abo_GSR.nc
 Integrated electronic density in atomic spheres:
 ------------------------------------------------
 Atom  Sphere_radius  Integrated_density
    1        2.00000          9.25465919
    2        2.00000          9.25478115
================================================================================

 ----iterations are completed or convergence reached----

 Mean square residual over all n,k,spin=   13.394E-07; max=  42.582E-05
   0.0000  0.0000  0.0000    1  4.30837E-09 kpt; spin; max resid(k); each band:
  4.31E-09 4.30E-09 3.18E-09 2.90E-09 3.01E-09 3.18E-09 2.90E-09 3.27E-09
  3.44E-10 8.40E-10 7.71E-10 1.32E-09 1.35E-09 1.11E-09 8.58E-10 6.45E-10
  1.37E-09 1.63E-09 1.20E-09 3.10E-10
   0.1667  0.0000  0.0000    1  4.39922E-09 kpt; spin; max resid(k); each band:
  4.34E-09 4.40E-09 3.31E-09 2.89E-09 2.92E-09 3.51E-09 2.97E-09 2.99E-09
  4.00E-10 6.35E-10 1.04E-09 8.78E-10 8.93E-10 1.07E-09 5.60E-10 9.68E-10
  2.01E-09 2.07E-09 1.17E-09 6.40E-10
   0.3333  0.0000  0.0000    1  4.47313E-09 kpt; spin; max resid(k); each band:
  4.39E-09 4.47E-09 3.36E-09 2.91E-09 2.94E-09 3.46E-09 2.96E-09 2.98E-09
  4.59E-10 1.03E-09 4.70E-10 7.28E-10 7.47E-10 4.72E-10 1.02E-09 7.99E-10
  8.13E-10 9.60E-10 1.28E-09 1.34E-09
   0.5000  0.0000  0.0000    1  7.72900E-10 kpt; spin; max resid(k); each band:
  1.27E-10 6.56E-10 4.27E-10 4.56E-11 6.72E-11 6.62E-11 1.46E-10 1.46E-10
  3.52E-10 7.73E-10 4.61E-11 5.85E-11 7.28E-11 7.38E-11 6.96E-11 7.33E-11
  3.32E-11 1.50E-11 4.52E-10 1.95E-10
   0.0000  0.1667  0.0000    1  4.39639E-09 kpt; spin; max resid(k); each band:
  4.34E-09 4.40E-09 2.90E-09 3.29E-09 2.93E-09 3.08E-09 3.37E-09 3.00E-09
  4.06E-10 8.00E-10 8.90E-10 8.71E-10 7.06E-10 1.29E-09 7.22E-10 7.74E-10
  1.99E-09 1.78E-09 1.40E-09 6.17E-10
   0.1667  0.1667  0.0000    1  4.04267E-07 kpt; spin; max resid(k); each band:
  4.33E-09 4.35E-09 3.16E-09 2.93E-09 3.06E-09 3.11E-09 2.98E-09 3.43E-09
  4.48E-10 6.12E-10 1.10E-09 1.23E-09 1.13E-09 8.48E-10 1.67E-09 9.64E-10
  1.49E-09 9.07E-10 1.51E-09 4.04E-07
   0.3333  0.1667  0.0000    1  4.44377E-09 kpt; spin; max resid(k); each band:
  4.37E-09 4.44E-09 3.22E-09 3.16E-09 2.94E-09 3.06E-09 2.97E-09 3.29E-09
  6.55E-10 9.47E-10 8.58E-10 9.61E-10 1.14E-09 8.36E-10 1.07E-09 1.17E-09
  8.54E-10 1.34E-09 1.28E-09 1.89E-09
   0.5000  0.1667  0.0000    1  3.05967E-09 kpt; spin; max resid(k); each band:
  1.19E-10 6.19E-10 3.06E-09 2.79E-09 5.72E-11 1.43E-10 2.88E-09 3.06E-09
  6.30E-10 1.21E-09 3.79E-10 7.56E-10 5.29E-10 1.02E-09 1.39E-09 3.32E-10
  1.02E-09 5.53E-10 5.86E-10 3.64E-10
  -0.3333  0.1667  0.0000    1  4.43422E-09 kpt; spin; max resid(k); each band:
  4.37E-09 4.43E-09 3.10E-09 3.29E-09 2.94E-09 3.20E-09 2.97E-09 3.15E-09
  6.78E-10 9.42E-10 8.49E-10 9.32E-10 1.18E-09 8.55E-10 1.07E-09 1.16E-09
  8.82E-10 1.35E-09 1.24E-09 1.90E-09
  -0.1667  0.1667  0.0000    1  4.13326E-08 kpt; spin; max resid(k); each band:
  4.32E-09 4.32E-09 3.03E-09 2.93E-09 3.20E-09 3.25E-09 2.98E-09 3.28E-09
  4.60E-10 6.04E-10 1.10E-09 1.19E-09 1.16E-09 8.77E-10 1.66E-09 1.03E-09
  1.49E-09 9.16E-10 2.03E-09 4.13E-08
   0.0000  0.3333  0.0000    1  4.46887E-09 kpt; spin; max resid(k); each band:
  4.39E-09 4.47E-09 2.95E-09 3.31E-09 2.95E-09 3.04E-09 3.36E-09 3.00E-09
  4.83E-10 9.83E-10 6.16E-10 7.02E-10 5.48E-10 6.21E-10 1.23E-09 7.73E-10
  6.19E-10 1.16E-09 1.10E-09 1.11E-09
   0.1667  0.3333  0.0000    1  4.43935E-09 kpt; spin; max resid(k); each band:
  4.37E-09 4.44E-09 3.13E-09 3.07E-09 2.94E-09 3.15E-09 2.97E-09 3.38E-09
  6.68E-10 8.93E-10 1.01E-09 9.21E-10 1.18E-09 7.92E-10 1.00E-09 1.24E-09
  9.14E-10 1.13E-09 1.36E-09 1.76E-09
   0.3333  0.3333  0.0000    1  4.36182E-09 kpt; spin; max resid(k); each band:
  4.31E-09 4.36E-09 3.18E-09 3.08E-09 2.95E-09 2.95E-09 3.17E-09 3.42E-09
  9.35E-10 7.54E-10 1.17E-09 1.51E-09 8.23E-10 1.14E-09 9.69E-10 1.92E-09
  1.28E-09 8.96E-10 2.06E-09 1.22E-09
   0.5000  0.3333  0.0000    1  3.41082E-09 kpt; spin; max resid(k); each band:
  1.21E-10 5.13E-10 3.21E-09 3.03E-09 3.17E-11 1.23E-10 3.16E-09 3.41E-09
  1.46E-09 2.41E-10 8.45E-10 1.14E-09 1.33E-09 5.74E-10 5.28E-10 1.63E-09
  1.03E-09 5.09E-10 1.10E-09 9.19E-10
  -0.3333  0.3333  0.0000    1  4.33395E-09 kpt; spin; max resid(k); each band:
  4.32E-09 4.33E-09 3.06E-09 3.21E-09 2.95E-09 2.94E-09 3.31E-09 3.28E-09
  9.76E-10 7.12E-10 1.13E-09 1.49E-09 8.51E-10 1.15E-09 9.54E-10 1.95E-09
  1.28E-09 9.24E-10 1.84E-09 1.15E-09
  -0.1667  0.3333  0.0000    1  4.42912E-09 kpt; spin; max resid(k); each band:
  4.37E-09 4.43E-09 3.01E-09 3.20E-09 2.94E-09 3.29E-09 2.97E-09 3.24E-09
  6.91E-10 8.87E-10 1.00E-09 8.92E-10 1.21E-09 8.11E-10 1.01E-09 1.22E-09
  9.40E-10 1.14E-09 1.35E-09 1.77E-09
   0.0000  0.5000  0.0000    1  7.60785E-10 kpt; spin; max resid(k); each band:
  9.18E-11 6.74E-10 4.14E-10 4.23E-11 7.57E-11 6.29E-11 1.43E-10 6.58E-11
  3.57E-10 7.61E-10 4.88E-11 8.23E-11 7.25E-11 6.88E-11 6.41E-11 7.67E-11
  2.05E-10 1.73E-11 4.49E-10 2.37E-10
   0.1667  0.5000  0.0000    1  3.04033E-09 kpt; spin; max resid(k); each band:
  9.35E-11 6.38E-10 2.91E-09 2.93E-09 5.35E-11 1.38E-10 3.04E-09 2.90E-09
  4.23E-10 1.41E-09 3.54E-10 8.31E-10 4.91E-10 1.04E-09 1.38E-09 3.06E-10
  1.05E-09 5.23E-10 5.34E-10 4.03E-10
   0.3333  0.5000  0.0000    1  3.35026E-09 kpt; spin; max resid(k); each band:
  1.09E-10 5.26E-10 3.05E-09 3.20E-09 3.05E-11 1.21E-10 3.35E-09 3.23E-09
  1.50E-09 2.12E-10 1.17E-09 7.90E-10 1.30E-09 6.09E-10 4.55E-10 1.62E-09
  9.24E-10 5.63E-10 1.15E-09 1.05E-09
   0.5000  0.5000  0.0000    1  3.39757E-09 kpt; spin; max resid(k); each band:
  1.19E-10 4.57E-10 3.19E-09 3.08E-09 1.45E-11 9.90E-11 3.40E-09 3.26E-09
  1.11E-09 7.54E-11 1.16E-09 1.11E-09 4.84E-10 5.16E-10 3.39E-10 1.56E-09
  8.67E-11 3.00E-10 1.13E-09 1.12E-09
   0.0000  0.0000  0.1667    1  4.40410E-09 kpt; spin; max resid(k); each band:
  4.34E-09 4.40E-09 2.94E-09 3.19E-09 3.00E-09 3.12E-09 3.26E-09 3.07E-09
  4.09E-10 8.16E-10 8.81E-10 8.55E-10 7.07E-10 1.29E-09 7.35E-10 7.57E-10
  2.00E-09 1.81E-09 1.34E-09 5.98E-10
   0.1667  0.0000  0.1667    1  2.32791E-07 kpt; spin; max resid(k); each band:
  4.32E-09 4.33E-09 3.10E-09 2.89E-09 3.17E-09 3.22E-09 2.94E-09 3.36E-09
  4.62E-10 6.24E-10 1.08E-09 1.12E-09 1.14E-09 8.60E-10 1.65E-09 9.70E-10
  1.50E-09 9.00E-10 1.86E-09 2.33E-07
   0.3333  0.0000  0.1667    1  4.43635E-09 kpt; spin; max resid(k); each band:
  4.37E-09 4.44E-09 3.16E-09 3.25E-09 2.91E-09 3.17E-09 2.94E-09 3.22E-09
  6.81E-10 9.64E-10 8.35E-10 9.50E-10 1.16E-09 8.53E-10 1.05E-09 1.17E-09
  8.73E-10 1.35E-09 1.30E-09 1.91E-09
   0.5000  0.0000  0.1667    1  3.09444E-09 kpt; spin; max resid(k); each band:
  1.19E-10 6.19E-10 3.09E-09 2.79E-09 5.53E-11 1.40E-10 2.89E-09 3.09E-09
  5.74E-10 1.28E-09 3.97E-10 7.40E-10 5.33E-10 1.02E-09 1.38E-09 3.26E-10
  1.02E-09 5.57E-10 5.84E-10 3.65E-10
  -0.3333  0.0000  0.1667    1  4.44245E-09 kpt; spin; max resid(k); each band:
  4.37E-09 4.44E-09 3.19E-09 3.22E-09 2.91E-09 3.14E-09 2.94E-09 3.26E-09
  6.61E-10 9.59E-10 8.41E-10 9.57E-10 1.14E-09 8.50E-10 1.06E-09 1.16E-09
  8.65E-10 1.34E-09 1.30E-09 1.89E-09
  -0.1667  0.0000  0.1667    1  1.67390E-07 kpt; spin; max resid(k); each band:
  4.33E-09 4.33E-09 3.13E-09 2.89E-09 3.13E-09 3.18E-09 2.94E-09 3.39E-09
  4.51E-10 6.25E-10 1.09E-09 1.15E-09 1.12E-09 8.58E-10 1.66E-09 9.69E-10
  1.47E-09 9.11E-10 1.57E-09 1.67E-07
   0.0000  0.1667  0.1667    1  8.42920E-08 kpt; spin; max resid(k); each band:
  4.33E-09 4.33E-09 2.94E-09 3.30E-09 2.91E-09 2.95E-09 3.36E-09 3.20E-09
  4.62E-10 8.08E-10 9.21E-10 1.33E-09 9.75E-10 9.24E-10 1.50E-09 1.05E-09
  1.48E-09 7.42E-10 2.33E-09 8.43E-08
   0.1667  0.1667  0.1667    1  3.80442E-07 kpt; spin; max resid(k); each band:
  4.39E-09 4.55E-09 3.12E-09 3.03E-09 2.95E-09 2.98E-09 3.20E-09 3.12E-09
  6.42E-10 7.78E-10 7.11E-10 1.05E-09 9.54E-10 2.14E-09 1.17E-09 1.64E-09
  1.58E-09 1.89E-09 1.74E-09 3.80E-07
   0.3333  0.1667  0.1667    1  8.45676E-09 kpt; spin; max resid(k); each band:
  4.35E-09 4.42E-09 3.20E-09 3.12E-09 2.97E-09 3.08E-09 3.02E-09 3.27E-09
  8.38E-10 1.57E-09 6.55E-10 1.10E-09 1.24E-09 1.17E-09 1.16E-09 8.63E-10
  1.50E-09 1.55E-09 1.91E-09 8.46E-09
   0.5000  0.1667  0.1667    1  3.15462E-09 kpt; spin; max resid(k); each band:
  1.17E-10 5.81E-10 3.11E-09 2.84E-09 1.27E-10 6.42E-11 2.94E-09 3.15E-09
  1.60E-09 8.09E-10 1.85E-10 1.56E-09 2.10E-09 9.33E-10 1.66E-09 1.09E-10
  3.51E-10 1.11E-09 2.02E-09 1.88E-09
  -0.3333  0.1667  0.1667    1  9.42600E-09 kpt; spin; max resid(k); each band:
  4.35E-09 4.42E-09 3.14E-09 3.19E-09 2.97E-09 3.15E-09 3.02E-09 3.20E-09
  8.40E-10 1.57E-09 6.46E-10 1.12E-09 1.23E-09 1.18E-09 1.15E-09 8.41E-10
  1.54E-09 1.58E-09 1.91E-09 9.43E-09
  -0.1667  0.1667  0.1667    1  3.08886E-06 kpt; spin; max resid(k); each band:
  4.39E-09 4.55E-09 3.07E-09 3.01E-09 3.02E-09 3.05E-09 3.15E-09 3.10E-09
  6.42E-10 7.77E-10 7.01E-10 1.05E-09 9.67E-10 2.14E-09 1.18E-09 1.73E-09
  1.57E-09 1.84E-09 1.94E-09 3.09E-06
   0.0000  0.3333  0.1667    1  4.43383E-09 kpt; spin; max resid(k); each band:
  4.37E-09 4.43E-09 2.96E-09 2.95E-09 3.32E-09 2.95E-09 3.35E-09 3.11E-09
  6.94E-10 1.08E-09 7.95E-10 1.03E-09 1.05E-09 8.87E-10 8.93E-10 1.21E-09
  9.72E-10 1.13E-09 1.42E-09 1.76E-09
   0.1667  0.3333  0.1667    1  9.63954E-09 kpt; spin; max resid(k); each band:
  4.36E-09 4.41E-09 3.07E-09 2.99E-09 3.12E-09 3.07E-09 3.18E-09 3.25E-09
  8.43E-10 1.54E-09 7.80E-10 1.05E-09 1.29E-09 1.11E-09 1.27E-09 7.71E-10
  1.59E-09 1.51E-09 1.94E-09 9.64E-09
   0.3333  0.3333  0.1667    1  4.07932E-06 kpt; spin; max resid(k); each band:
  4.29E-09 4.33E-09 3.19E-09 3.05E-09 3.00E-09 3.00E-09 3.13E-09 3.41E-09
  1.10E-09 8.85E-10 1.12E-09 1.09E-09 1.99E-09 1.40E-09 1.12E-09 2.17E-09
  1.49E-09 2.30E-09 5.89E-09 4.08E-06
   0.5000  0.3333  0.1667    1  1.49107E-08 kpt; spin; max resid(k); each band:
  1.24E-10 4.82E-10 3.21E-09 3.02E-09 1.96E-10 1.31E-10 3.14E-09 3.36E-09
  1.63E-09 3.48E-10 1.23E-09 9.55E-10 2.61E-09 1.08E-09 5.22E-10 1.98E-09
  3.84E-10 7.69E-10 7.37E-09 1.49E-08
  -0.3333  0.3333  0.1667    1  5.73940E-05 kpt; spin; max resid(k); each band:
  4.30E-09 4.31E-09 3.07E-09 3.15E-09 3.04E-09 3.02E-09 3.23E-09 3.26E-09
  1.14E-09 8.57E-10 1.08E-09 1.11E-09 1.94E-09 1.40E-09 1.11E-09 2.19E-09
  1.61E-09 2.35E-09 5.55E-09 5.74E-05
  -0.1667  0.3333  0.1667    1  9.16675E-09 kpt; spin; max resid(k); each band:
  4.36E-09 4.41E-09 2.97E-09 3.06E-09 3.15E-09 3.14E-09 3.21E-09 3.14E-09
  8.66E-10 1.54E-09 7.70E-10 1.07E-09 1.29E-09 1.13E-09 1.23E-09 7.87E-10
  1.58E-09 1.45E-09 1.94E-09 9.17E-09
   0.0000  0.5000  0.1667    1  2.82796E-09 kpt; spin; max resid(k); each band:
  9.18E-11 6.37E-10 2.83E-09 2.67E-09 6.41E-11 6.24E-11 2.77E-09 2.83E-09
  5.07E-10 1.37E-09 4.20E-10 6.70E-10 5.69E-10 1.12E-09 1.39E-09 2.78E-10
  1.12E-09 5.93E-10 5.24E-10 3.86E-10
   0.1667  0.5000  0.1667    1  2.99978E-09 kpt; spin; max resid(k); each band:
  9.74E-11 6.01E-10 2.97E-09 2.84E-09 1.40E-10 7.07E-11 2.95E-09 3.00E-09
  5.88E-10 1.82E-09 1.81E-10 1.60E-09 2.12E-09 9.36E-10 1.67E-09 1.15E-10
  4.09E-10 1.04E-09 1.98E-09 1.79E-09
   0.3333  0.5000  0.1667    1  1.36227E-08 kpt; spin; max resid(k); each band:
  1.10E-10 4.96E-10 3.08E-09 3.15E-09 2.00E-10 1.25E-10 3.25E-09 3.22E-09
  1.66E-09 3.20E-10 9.95E-10 1.18E-09 2.54E-09 1.20E-09 5.26E-10 1.98E-09
  3.40E-10 7.41E-10 8.06E-09 1.36E-08
   0.5000  0.5000  0.1667    1  4.30652E-07 kpt; spin; max resid(k); each band:
  1.36E-10 4.50E-10 3.21E-09 3.10E-09 8.04E-11 1.13E-10 3.38E-09 3.25E-09
  1.09E-09 1.41E-10 1.06E-09 1.00E-09 1.91E-09 2.02E-09 2.81E-10 1.58E-09
  1.14E-10 5.91E-11 4.31E-07 1.02E-07
  -0.3333  0.5000  0.1667    1  1.40497E-08 kpt; spin; max resid(k); each band:
  1.09E-10 4.92E-10 3.04E-09 3.18E-09 1.89E-10 1.22E-10 3.30E-09 3.15E-09
  1.67E-09 3.33E-10 1.01E-09 1.18E-09 2.51E-09 1.18E-09 5.33E-10 1.96E-09
  3.49E-10 7.47E-10 7.94E-09 1.40E-08
  -0.1667  0.5000  0.1667    1  3.01448E-09 kpt; spin; max resid(k); each band:
  9.77E-11 6.00E-10 2.88E-09 2.89E-09 1.28E-10 6.01E-11 3.01E-09 2.92E-09
  6.08E-10 1.84E-09 1.88E-10 1.57E-09 2.09E-09 9.78E-10 1.65E-09 1.24E-10
  4.22E-10 1.04E-09 1.94E-09 1.81E-09
   0.0000 -0.3333  0.1667    1  4.43423E-09 kpt; spin; max resid(k); each band:
  4.37E-09 4.43E-09 2.89E-09 3.02E-09 3.32E-09 3.03E-09 3.35E-09 3.04E-09
  7.02E-10 1.07E-09 7.92E-10 1.00E-09 1.06E-09 9.03E-10 9.00E-10 1.20E-09
  9.92E-10 1.13E-09 1.39E-09 1.75E-09
   0.1667 -0.3333  0.1667    1  5.56715E-09 kpt; spin; max resid(k); each band:
  4.36E-09 4.41E-09 2.93E-09 3.13E-09 3.12E-09 3.21E-09 3.18E-09 3.10E-09
  8.69E-10 1.52E-09 7.68E-10 1.09E-09 1.28E-09 1.13E-09 1.24E-09 7.77E-10
  1.62E-09 1.40E-09 1.94E-09 5.57E-09
   0.3333 -0.3333  0.1667    1  3.76269E-05 kpt; spin; max resid(k); each band:
  4.30E-09 4.31E-09 3.07E-09 3.20E-09 2.98E-09 2.98E-09 3.29E-09 3.26E-09
  1.15E-09 8.45E-10 1.10E-09 1.09E-09 1.97E-09 1.42E-09 1.12E-09 2.18E-09
  1.65E-09 2.20E-09 5.57E-09 3.76E-05
   0.5000 -0.3333  0.1667    1  1.38169E-08 kpt; spin; max resid(k); each band:
  1.20E-10 4.81E-10 3.23E-09 3.04E-09 1.94E-10 1.31E-10 3.16E-09 3.40E-09
  1.63E-09 3.48E-10 1.23E-09 9.53E-10 2.61E-09 1.09E-09 5.21E-10 1.98E-09
  3.84E-10 7.64E-10 7.90E-09 1.38E-08
  -0.3333 -0.3333  0.1667    1  3.72295E-06 kpt; spin; max resid(k); each band:
  4.29E-09 4.33E-09 3.19E-09 3.07E-09 2.97E-09 2.98E-09 3.16E-09 3.40E-09
  1.10E-09 8.99E-10 1.12E-09 1.09E-09 1.97E-09 1.38E-09 1.11E-09 2.18E-09
  1.47E-09 2.30E-09 5.88E-09 3.72E-06
  -0.1667 -0.3333  0.1667    1  2.21096E-08 kpt; spin; max resid(k); each band:
  4.35E-09 4.42E-09 3.00E-09 3.03E-09 3.15E-09 3.10E-09 3.21E-09 3.18E-09
  8.53E-10 1.54E-09 7.73E-10 1.05E-09 1.28E-09 1.13E-09 1.16E-09 7.48E-10
  1.55E-09 1.50E-09 1.94E-09 2.21E-08
 outwf : prtvol=0 or 1, do not print more k-points.

 Fermi (or HOMO) energy (hartree) =   0.48720   Average Vxc (hartree)=  -0.47774
 Eigenvalues (hartree) for nkpt= 112  k points:
 kpt#   1, nband= 20, wtk=  0.00463, kpt=  0.0000  0.0000  0.0000 (reduced coord)
  -1.97279   -1.96586   -0.75845   -0.75845   -0.75845   -0.73007   -0.73007   -0.73006
   0.20207    0.35415    0.35415    0.51741    0.51741    0.51741    0.63573    0.63574
   0.73721    0.73721    0.73721    0.79854
      occupation numbers for kpt#   1
   2.00000    2.00000    2.00000    2.00000    2.00000    2.00000    2.00000    2.00000
   2.00000    2.00000    2.00000    0.00000    0.00000    0.00000    0.00000    0.00000
   0.00000    0.00000    0.00000    0.00000
 kpt#   2, nband= 20, wtk=  0.00926, kpt=  0.1667  0.0000  0.0000 (reduced coord)
  -1.97227   -1.96626   -0.75842   -0.75650   -0.75650   -0.73399   -0.73190   -0.73190
   0.22389    0.36611    0.36951    0.51473    0.51473    0.52795    0.60084    0.64799
   0.65826    0.65826    0.71493    0.73949
      occupation numbers for kpt#   2
   2.00000    2.00000    2.00000    2.00000    2.00000    2.00000    2.00000    2.00000
   2.00000    2.00000    2.00000    0.00000    0.00000    0.00000    0.00000    0.00000
   0.00000    0.00000    0.00000    0.00000
 kpt#   3, nband= 20, wtk=  0.00926, kpt=  0.3333  0.0000  0.0000 (reduced coord)
  -1.97088   -1.96741   -0.75700   -0.75119   -0.75119   -0.74307   -0.73697   -0.73697
   0.28211    0.38931    0.40134    0.51587    0.51587    0.52908    0.55861    0.58276
   0.58276    0.66320    0.67037    0.67312
      occupation numbers for kpt#   3
   2.00000    2.00000    2.00000    2.00000    2.00000    2.00000    2.00000    2.00000
   2.00000    2.00000    2.00000    0.00000    0.00000    0.00000    0.00000    0.00000
   0.00000    0.00000    0.00000    0.00000
 kpt#   4, nband= 20, wtk=  0.00463, kpt=  0.5000  0.0000  0.0000 (reduced coord)
  -1.96909   -1.96907   -0.75193   -0.75192   -0.74402   -0.74402   -0.74401   -0.74401
   0.35357    0.35357    0.45757    0.45757    0.53574    0.53574    0.53574    0.53574
   0.60613    0.60613    0.67172    0.67173
      occupation numbers for kpt#   4
   2.00000    2.00000    2.00000    2.00000    2.00000    2.00000    2.00000    2.00000
   2.00000    2.00000    2.00000    2.00000    0.00000    0.00000    0.00000    0.00000
   0.00000    0.00000    0.00000    0.00000
 kpt#   5, nband= 20, wtk=  0.00926, kpt=  0.0000  0.1667  0.0000 (reduced coord)
  -1.97227   -1.96626   -0.75842   -0.75650   -0.75650   -0.73399   -0.73190   -0.73190
   0.22389    0.36611    0.36951    0.51473    0.51474    0.52795    0.60084    0.64799
   0.65826    0.65826    0.71493    0.73949
      occupation numbers for kpt#   5
   2.00000    2.00000    2.00000    2.00000    2.00000    2.00000    2.00000    2.00000
   2.00000    2.00000    2.00000    0.00000    0.00000    0.00000    0.00000    0.00000
   0.00000    0.00000    0.00000    0.00000
 kpt#   6, nband= 20, wtk=  0.00926, kpt=  0.1667  0.1667  0.0000 (reduced coord)
  -1.97180   -1.96660   -0.76158   -0.75476   -0.75173   -0.74083   -0.73345   -0.73012
   0.24355    0.37603    0.38520    0.49244    0.50377    0.56022    0.59819    0.59854
   0.61119    0.63719    0.74531    0.79246
      occupation numbers for kpt#   6
   2.00000    2.00000    2.00000    2.00000    2.00000    2.00000    2.00000    2.00000
   2.00000    2.00000    2.00000    0.01054    0.00000    0.00000    0.00000    0.00000
   0.00000    0.00000    0.00000    0.00000
 kpt#   7, nband= 20, wtk=  0.00926, kpt=  0.3333  0.1667  0.0000 (reduced coord)
  -1.97058   -1.96758   -0.76270   -0.75096   -0.75008   -0.74501   -0.73775   -0.73241
   0.29440    0.38776    0.41830    0.48099    0.48645    0.53338    0.55830    0.58034
   0.60673    0.66397    0.71807    0.71890
      occupation numbers for kpt#   7
   2.00000    2.00000    2.00000    2.00000    2.00000    2.00000    2.00000    2.00000
   2.00000    2.00000    2.00000    1.99600    1.35931    0.00000    0.00000    0.00000
   0.00000    0.00000    0.00000    0.00000
 kpt#   8, nband= 20, wtk=  0.00926, kpt=  0.5000  0.1667  0.0000 (reduced coord)
  -1.96902   -1.96901   -0.75920   -0.75920   -0.74383   -0.74381   -0.73802   -0.73801
   0.35418    0.35418    0.45617    0.45617    0.49336    0.49336    0.56583    0.56583
   0.66184    0.66184    0.67742    0.67743
      occupation numbers for kpt#   8
   2.00000    2.00000    2.00000    2.00000    2.00000    2.00000    2.00000    2.00000
   2.00000    2.00000    2.00000    2.00000    0.00423    0.00422    0.00000    0.00000
   0.00000    0.00000    0.00000    0.00000
 kpt#   9, nband= 20, wtk=  0.00926, kpt= -0.3333  0.1667  0.0000 (reduced coord)
  -1.97058   -1.96758   -0.76270   -0.75096   -0.75008   -0.74501   -0.73775   -0.73241
   0.29440    0.38776    0.41830    0.48099    0.48645    0.53338    0.55830    0.58034
   0.60673    0.66397    0.71807    0.71890
      occupation numbers for kpt#   9
   2.00000    2.00000    2.00000    2.00000    2.00000    2.00000    2.00000    2.00000
   2.00000    2.00000    2.00000    1.99599    1.35967    0.00000    0.00000    0.00000
   0.00000    0.00000    0.00000    0.00000
 kpt#  10, nband= 20, wtk=  0.00926, kpt= -0.1667  0.1667  0.0000 (reduced coord)
  -1.97180   -1.96660   -0.76158   -0.75476   -0.75173   -0.74083   -0.73345   -0.73012
   0.24355    0.37603    0.38520    0.49244    0.50377    0.56022    0.59819    0.59854
   0.61119    0.63719    0.74531    0.79246
      occupation numbers for kpt#  10
   2.00000    2.00000    2.00000    2.00000    2.00000    2.00000    2.00000    2.00000
   2.00000    2.00000    2.00000    0.01053    0.00000    0.00000    0.00000    0.00000
   0.00000    0.00000    0.00000    0.00000
 kpt#  11, nband= 20, wtk=  0.00926, kpt=  0.0000  0.3333  0.0000 (reduced coord)
  -1.97088   -1.96741   -0.75700   -0.75119   -0.75118   -0.74307   -0.73697   -0.73697
   0.28211    0.38931    0.40134    0.51587    0.51587    0.52908    0.55862    0.58275
   0.58276    0.66320    0.67037    0.67312
      occupation numbers for kpt#  11
   2.00000    2.00000    2.00000    2.00000    2.00000    2.00000    2.00000    2.00000
   2.00000    2.00000    2.00000    0.00000    0.00000    0.00000    0.00000    0.00000
   0.00000    0.00000    0.00000    0.00000
 kpt#  12, nband= 20, wtk=  0.00926, kpt=  0.1667  0.3333  0.0000 (reduced coord)
  -1.97058   -1.96758   -0.76270   -0.75096   -0.75008   -0.74501   -0.73775   -0.73241
   0.29440    0.38776    0.41830    0.48099    0.48645    0.53338    0.55830    0.58034
   0.60673    0.66397    0.71807    0.71890
      occupation numbers for kpt#  12
   2.00000    2.00000    2.00000    2.00000    2.00000    2.00000    2.00000    2.00000
   2.00000    2.00000    2.00000    1.99600    1.35927    0.00000    0.00000    0.00000
   0.00000    0.00000    0.00000    0.00000
 kpt#  13, nband= 20, wtk=  0.00926, kpt=  0.3333  0.3333  0.0000 (reduced coord)
  -1.96982   -1.96808   -0.76770   -0.76110   -0.74716   -0.74003   -0.73766   -0.73023
   0.31846    0.36663    0.45233    0.46800    0.47899    0.48901    0.56364    0.62686
   0.65191    0.67464    0.74009    0.76259
      occupation numbers for kpt#  13
   2.00000    2.00000    2.00000    2.00000    2.00000    2.00000    2.00000    2.00000
   2.00000    2.00000    2.00000    2.00000    1.99946    0.28115    0.00000    0.00000
   0.00000    0.00000    0.00000    0.00000
 kpt#  14, nband= 20, wtk=  0.00926, kpt=  0.5000  0.3333  0.0000 (reduced coord)
  -1.96889   -1.96887   -0.76743   -0.76742   -0.74344   -0.74342   -0.73231   -0.73231
   0.34099    0.34099    0.45076    0.45076    0.49976    0.49976    0.61030    0.61031
   0.68066    0.68066    0.73633    0.73633
      occupation numbers for kpt#  14
   2.00000    2.00000    2.00000    2.00000    2.00000    2.00000    2.00000    2.00000
   2.00000    2.00000    2.00000    2.00000    0.00001    0.00001    0.00000    0.00000
   0.00000    0.00000    0.00000    0.00000
 kpt#  15, nband= 20, wtk=  0.00926, kpt= -0.3333  0.3333  0.0000 (reduced coord)
  -1.96982   -1.96808   -0.76769   -0.76110   -0.74716   -0.74003   -0.73767   -0.73023
   0.31846    0.36663    0.45233    0.46800    0.47899    0.48901    0.56364    0.62686
   0.65191    0.67464    0.74009    0.76259
      occupation numbers for kpt#  15
   2.00000    2.00000    2.00000    2.00000    2.00000    2.00000    2.00000    2.00000
   2.00000    2.00000    2.00000    2.00000    1.99946    0.28138    0.00000    0.00000
   0.00000    0.00000    0.00000    0.00000
 kpt#  16, nband= 20, wtk=  0.00926, kpt= -0.1667  0.3333  0.0000 (reduced coord)
  -1.97058   -1.96758   -0.76270   -0.75096   -0.75008   -0.74501   -0.73775   -0.73241
   0.29440    0.38776    0.41830    0.48099    0.48645    0.53338    0.55830    0.58034
   0.60673    0.66397    0.71807    0.71890
      occupation numbers for kpt#  16
   2.00000    2.00000    2.00000    2.00000    2.00000    2.00000    2.00000    2.00000
   2.00000    2.00000    2.00000    1.99599    1.35963    0.00000    0.00000    0.00000
   0.00000    0.00000    0.00000    0.00000
 kpt#  17, nband= 20, wtk=  0.00463, kpt=  0.0000  0.5000  0.0000 (reduced coord)
  -1.96909   -1.96907   -0.75193   -0.75192   -0.74402   -0.74402   -0.74401   -0.74401
   0.35357    0.35357    0.45757    0.45757    0.53574    0.53574    0.53574    0.53574
   0.60613    0.60613    0.67172    0.67173
      occupation numbers for kpt#  17
   2.00000    2.00000    2.00000    2.00000    2.00000    2.00000    2.00000    2.00000
   2.00000    2.00000    2.00000    2.00000    0.00000    0.00000    0.00000    0.00000
   0.00000    0.00000    0.00000    0.00000
 kpt#  18, nband= 20, wtk=  0.00926, kpt=  0.1667  0.5000  0.0000 (reduced coord)
  -1.96902   -1.96901   -0.75920   -0.75920   -0.74383   -0.74381   -0.73802   -0.73801
   0.35418    0.35418    0.45617    0.45617    0.49336    0.49336    0.56583    0.56583
   0.66184    0.66184    0.67742    0.67743
      occupation numbers for kpt#  18
   2.00000    2.00000    2.00000    2.00000    2.00000    2.00000    2.00000    2.00000
   2.00000    2.00000    2.00000    2.00000    0.00423    0.00422    0.00000    0.00000
   0.00000    0.00000    0.00000    0.00000
 kpt#  19, nband= 20, wtk=  0.00926, kpt=  0.3333  0.5000  0.0000 (reduced coord)
  -1.96889   -1.96887   -0.76743   -0.76742   -0.74344   -0.74342   -0.73231   -0.73231
   0.34099    0.34099    0.45076    0.45076    0.49976    0.49976    0.61030    0.61031
   0.68065    0.68066    0.73633    0.73633
      occupation numbers for kpt#  19
   2.00000    2.00000    2.00000    2.00000    2.00000    2.00000    2.00000    2.00000
   2.00000    2.00000    2.00000    2.00000    0.00001    0.00001    0.00000    0.00000
   0.00000    0.00000    0.00000    0.00000
 kpt#  20, nband= 20, wtk=  0.00463, kpt=  0.5000  0.5000  0.0000 (reduced coord)
  -1.96882   -1.96881   -0.77068   -0.77068   -0.74324   -0.74323   -0.73029   -0.73029
   0.33220    0.33220    0.43547    0.43547    0.54408    0.54408    0.63101    0.63102
   0.66830    0.66831    0.77185    0.77185
      occupation numbers for kpt#  20
   2.00000    2.00000    2.00000    2.00000    2.00000    2.00000    2.00000    2.00000
   2.00000    2.00000    2.00000    2.00000    0.00000    0.00000    0.00000    0.00000
   0.00000    0.00000    0.00000    0.00000
 kpt#  21, nband= 20, wtk=  0.00926, kpt=  0.0000  0.0000  0.1667 (reduced coord)
  -1.97227   -1.96626   -0.75842   -0.75650   -0.75650   -0.73399   -0.73190   -0.73190
   0.22389    0.36611    0.36951    0.51473    0.51474    0.52795    0.60084    0.64799
   0.65826    0.65826    0.71493    0.73949
      occupation numbers for kpt#  21
   2.00000    2.00000    2.00000    2.00000    2.00000    2.00000    2.00000    2.00000
   2.00000    2.00000    2.00000    0.00000    0.00000    0.00000    0.00000    0.00000
   0.00000    0.00000    0.00000    0.00000
 kpt#  22, nband= 20, wtk=  0.00926, kpt=  0.1667  0.0000  0.1667 (reduced coord)
  -1.97180   -1.96660   -0.76158   -0.75476   -0.75173   -0.74083   -0.73345   -0.73012
   0.24355    0.37603    0.38520    0.49244    0.50377    0.56022    0.59819    0.59854
   0.61119    0.63719    0.74531    0.79246
      occupation numbers for kpt#  22
   2.00000    2.00000    2.00000    2.00000    2.00000    2.00000    2.00000    2.00000
   2.00000    2.00000    2.00000    0.01053    0.00000    0.00000    0.00000    0.00000
   0.00000    0.00000    0.00000    0.00000
 kpt#  23, nband= 20, wtk=  0.00926, kpt=  0.3333  0.0000  0.1667 (reduced coord)
  -1.97058   -1.96758   -0.76270   -0.75096   -0.75008   -0.74501   -0.73775   -0.73241
   0.29440    0.38776    0.41830    0.48099    0.48645    0.53338    0.55830    0.58034
   0.60673    0.66397    0.71807    0.71890
      occupation numbers for kpt#  23
   2.00000    2.00000    2.00000    2.00000    2.00000    2.00000    2.00000    2.00000
   2.00000    2.00000    2.00000    1.99599    1.35965    0.00000    0.00000    0.00000
   0.00000    0.00000    0.00000    0.00000
 kpt#  24, nband= 20, wtk=  0.00926, kpt=  0.5000  0.0000  0.1667 (reduced coord)
  -1.96902   -1.96901   -0.75920   -0.75920   -0.74383   -0.74381   -0.73802   -0.73801
   0.35418    0.35418    0.45617    0.45617    0.49336    0.49336    0.56583    0.56583
   0.66184    0.66184    0.67742    0.67743
      occupation numbers for kpt#  24
   2.00000    2.00000    2.00000    2.00000    2.00000    2.00000    2.00000    2.00000
   2.00000    2.00000    2.00000    2.00000    0.00423    0.00422    0.00000    0.00000
   0.00000    0.00000    0.00000    0.00000
 kpt#  25, nband= 20, wtk=  0.00926, kpt= -0.3333  0.0000  0.1667 (reduced coord)
  -1.97058   -1.96758   -0.76270   -0.75096   -0.75008   -0.74501   -0.73775   -0.73241
   0.29440    0.38776    0.41830    0.48099    0.48645    0.53338    0.55830    0.58034
   0.60673    0.66397    0.71807    0.71890
      occupation numbers for kpt#  25
   2.00000    2.00000    2.00000    2.00000    2.00000    2.00000    2.00000    2.00000
   2.00000    2.00000    2.00000    1.99600    1.35937    0.00000    0.00000    0.00000
   0.00000    0.00000    0.00000    0.00000
 kpt#  26, nband= 20, wtk=  0.00926, kpt= -0.1667  0.0000  0.1667 (reduced coord)
  -1.97180   -1.96660   -0.76158   -0.75476   -0.75173   -0.74083   -0.73345   -0.73012
   0.24355    0.37603    0.38520    0.49244    0.50377    0.56022    0.59819    0.59854
   0.61119    0.63719    0.74531    0.79246
      occupation numbers for kpt#  26
   2.00000    2.00000    2.00000    2.00000    2.00000    2.00000    2.00000    2.00000
   2.00000    2.00000    2.00000    0.01054    0.00000    0.00000    0.00000    0.00000
   0.00000    0.00000    0.00000    0.00000
 kpt#  27, nband= 20, wtk=  0.00926, kpt=  0.0000  0.1667  0.1667 (reduced coord)
  -1.97180   -1.96660   -0.76158   -0.75476   -0.75173   -0.74083   -0.73344   -0.73012
   0.24355    0.37603    0.38520    0.49244    0.50377    0.56022    0.59819    0.59854
   0.61119    0.63719    0.74531    0.79246
      occupation numbers for kpt#  27
   2.00000    2.00000    2.00000    2.00000    2.00000    2.00000    2.00000    2.00000
   2.00000    2.00000    2.00000    0.01053    0.00000    0.00000    0.00000    0.00000
   0.00000    0.00000    0.00000    0.00000
 kpt#  28, nband= 20, wtk=  0.00926, kpt=  0.1667  0.1667  0.1667 (reduced coord)
  -1.97139   -1.96689   -0.75943   -0.75943   -0.74645   -0.74590   -0.73217   -0.73217
   0.26249    0.39353    0.39353    0.48308    0.48308    0.51775    0.59376    0.62655
   0.62655    0.67022    0.67022    0.84857
      occupation numbers for kpt#  28
   2.00000    2.00000    2.00000    2.00000    2.00000    2.00000    2.00000    2.00000
   2.00000    2.00000    2.00000    1.96826    1.96822    0.00000    0.00000    0.00000
   0.00000    0.00000    0.00000    0.00000
 kpt#  29, nband= 20, wtk=  0.00926, kpt=  0.3333  0.1667  0.1667 (reduced coord)
  -1.97031   -1.96771   -0.76268   -0.75460   -0.75358   -0.74041   -0.73783   -0.73253
   0.30993    0.40555    0.41573    0.46441    0.47151    0.48323    0.59947    0.60722
   0.64812    0.65992    0.66626    0.80172
      occupation numbers for kpt#  29
   2.00000    2.00000    2.00000    2.00000    2.00000    2.00000    2.00000    2.00000
   2.00000    2.00000    2.00000    2.00000    2.00000    1.96286    0.00000    0.00000
   0.00000    0.00000    0.00000    0.00000
 kpt#  30, nband= 20, wtk=  0.00926, kpt=  0.5000  0.1667  0.1667 (reduced coord)
  -1.96896   -1.96894   -0.76115   -0.76115   -0.74566   -0.74565   -0.73551   -0.73551
   0.36343    0.36343    0.44252    0.44252    0.48497    0.48497    0.58381    0.58382
   0.66075    0.66075    0.72051    0.72052
      occupation numbers for kpt#  30
   2.00000    2.00000    2.00000    2.00000    2.00000    2.00000    2.00000    2.00000
   2.00000    2.00000    2.00000    2.00000    1.80562    1.80544    0.00000    0.00000
   0.00000    0.00000    0.00000    0.00000
 kpt#  31, nband= 20, wtk=  0.00926, kpt= -0.3333  0.1667  0.1667 (reduced coord)
  -1.97031   -1.96771   -0.76268   -0.75460   -0.75358   -0.74041   -0.73783   -0.73253
   0.30993    0.40555    0.41573    0.46441    0.47152    0.48323    0.59947    0.60722
   0.64812    0.65992    0.66626    0.80172
      occupation numbers for kpt#  31
   2.00000    2.00000    2.00000    2.00000    2.00000    2.00000    2.00000    2.00000
   2.00000    2.00000    2.00000    2.00000    2.00000    1.96287    0.00000    0.00000
   0.00000    0.00000    0.00000    0.00000
 kpt#  32, nband= 20, wtk=  0.00926, kpt= -0.1667  0.1667  0.1667 (reduced coord)
  -1.97139   -1.96689   -0.75943   -0.75943   -0.74645   -0.74590   -0.73217   -0.73217
   0.26249    0.39353    0.39353    0.48308    0.48308    0.51775    0.59376    0.62655
   0.62655    0.67022    0.67022    0.84857
      occupation numbers for kpt#  32
   2.00000    2.00000    2.00000    2.00000    2.00000    2.00000    2.00000    2.00000
   2.00000    2.00000    2.00000    1.96826    1.96822    0.00000    0.00000    0.00000
   0.00000    0.00000    0.00000    0.00000
 kpt#  33, nband= 20, wtk=  0.00926, kpt=  0.0000  0.3333  0.1667 (reduced coord)
  -1.97058   -1.96758   -0.76270   -0.75096   -0.75008   -0.74501   -0.73775   -0.73241
   0.29440    0.38776    0.41830    0.48099    0.48645    0.53338    0.55830    0.58034
   0.60673    0.66397    0.71807    0.71890
      occupation numbers for kpt#  33
   2.00000    2.00000    2.00000    2.00000    2.00000    2.00000    2.00000    2.00000
   2.00000    2.00000    2.00000    1.99600    1.35951    0.00000    0.00000    0.00000
   0.00000    0.00000    0.00000    0.00000
 kpt#  34, nband= 20, wtk=  0.00926, kpt=  0.1667  0.3333  0.1667 (reduced coord)
  -1.97031   -1.96771   -0.76268   -0.75460   -0.75358   -0.74041   -0.73783   -0.73253
   0.30993    0.40555    0.41573    0.46441    0.47151    0.48324    0.59947    0.60722
   0.64812    0.65992    0.66626    0.80172
      occupation numbers for kpt#  34
   2.00000    2.00000    2.00000    2.00000    2.00000    2.00000    2.00000    2.00000
   2.00000    2.00000    2.00000    2.00000    2.00000    1.96285    0.00000    0.00000
   0.00000    0.00000    0.00000    0.00000
 kpt#  35, nband= 20, wtk=  0.00926, kpt=  0.3333  0.3333  0.1667 (reduced coord)
  -1.96963   -1.96813   -0.76518   -0.76136   -0.75163   -0.74029   -0.73584   -0.73272
   0.33992    0.38538    0.44604    0.45216    0.46412    0.46641    0.60434    0.63291
   0.65501    0.68528    0.71651    0.83833
      occupation numbers for kpt#  35
   2.00000    2.00000    2.00000    2.00000    2.00000    2.00000    2.00000    2.00000
[...]
                       0.000000  0.000000
                       2.000000  2.000000  2.000000  2.000000  2.000000  2.000000
                       2.000000  2.000000  2.000000  2.000000  2.000000  0.000000
                       0.000000  0.000000  0.000000  0.000000  0.000000  0.000000
                       0.000000  0.000000
                       2.000000  2.000000  2.000000  2.000000  2.000000  2.000000
                       2.000000  2.000000  2.000000  2.000000  2.000000  1.995998
                       1.359265  0.000000  0.000000  0.000000  0.000000  0.000000
                       0.000000  0.000000
                       2.000000  2.000000  2.000000  2.000000  2.000000  2.000000
                       2.000000  2.000000  2.000000  2.000000  2.000000  2.000000
                       1.999459  0.281151  0.000000  0.000000  0.000000  0.000000
                       0.000000  0.000000
                       2.000000  2.000000  2.000000  2.000000  2.000000  2.000000
                       2.000000  2.000000  2.000000  2.000000  2.000000  2.000000
                       0.000007  0.000007  0.000000  0.000000  0.000000  0.000000
                       0.000000  0.000000
                       2.000000  2.000000  2.000000  2.000000  2.000000  2.000000
                       2.000000  2.000000  2.000000  2.000000  2.000000  2.000000
                       1.999459  0.281380  0.000000  0.000000  0.000000  0.000000
                       0.000000  0.000000
                       2.000000  2.000000  2.000000  2.000000  2.000000  2.000000
                       2.000000  2.000000  2.000000  2.000000  2.000000  1.995994
                       1.359634  0.000000  0.000000  0.000000  0.000000  0.000000
                       0.000000  0.000000
                       2.000000  2.000000  2.000000  2.000000  2.000000  2.000000
                       2.000000  2.000000  2.000000  2.000000  2.000000  2.000000
                       0.000000  0.000000  0.000000  0.000000  0.000000  0.000000
                       0.000000  0.000000
                       2.000000  2.000000  2.000000  2.000000  2.000000  2.000000
                       2.000000  2.000000  2.000000  2.000000  2.000000  2.000000
                       0.004227  0.004219  0.000000  0.000000  0.000000  0.000000
                       0.000000  0.000000
                       2.000000  2.000000  2.000000  2.000000  2.000000  2.000000
                       2.000000  2.000000  2.000000  2.000000  2.000000  2.000000
                       0.000007  0.000007  0.000000  0.000000  0.000000  0.000000
                       0.000000  0.000000
                       2.000000  2.000000  2.000000  2.000000  2.000000  2.000000
                       2.000000  2.000000  2.000000  2.000000  2.000000  2.000000
                       0.000000  0.000000  0.000000  0.000000  0.000000  0.000000
                       0.000000  0.000000
                       2.000000  2.000000  2.000000  2.000000  2.000000  2.000000
                       2.000000  2.000000  2.000000  2.000000  2.000000  0.000000
                       0.000000  0.000000  0.000000  0.000000  0.000000  0.000000
                       0.000000  0.000000
                       2.000000  2.000000  2.000000  2.000000  2.000000  2.000000
                       2.000000  2.000000  2.000000  2.000000  2.000000  0.010529
                       0.000000  0.000000  0.000000  0.000000  0.000000  0.000000
                       0.000000  0.000000
                       2.000000  2.000000  2.000000  2.000000  2.000000  2.000000
                       2.000000  2.000000  2.000000  2.000000  2.000000  1.995994
                       1.359645  0.000000  0.000000  0.000000  0.000000  0.000000
                       0.000000  0.000000
                       2.000000  2.000000  2.000000  2.000000  2.000000  2.000000
                       2.000000  2.000000  2.000000  2.000000  2.000000  2.000000
                       0.004225  0.004219  0.000000  0.000000  0.000000  0.000000
                       0.000000  0.000000
                       2.000000  2.000000  2.000000  2.000000  2.000000  2.000000
                       2.000000  2.000000  2.000000  2.000000  2.000000  1.995997
                       1.359370  0.000000  0.000000  0.000000  0.000000  0.000000
                       0.000000  0.000000
                       2.000000  2.000000  2.000000  2.000000  2.000000  2.000000
                       2.000000  2.000000  2.000000  2.000000  2.000000  0.010539
                       0.000000  0.000000  0.000000  0.000000  0.000000  0.000000
                       0.000000  0.000000
                       2.000000  2.000000  2.000000  2.000000  2.000000  2.000000
                       2.000000  2.000000  2.000000  2.000000  2.000000  0.010534
                       0.000000  0.000000  0.000000  0.000000  0.000000  0.000000
                       0.000000  0.000000
                       2.000000  2.000000  2.000000  2.000000  2.000000  2.000000
                       2.000000  2.000000  2.000000  2.000000  2.000000  1.968258
                       1.968216  0.000000  0.000000  0.000000  0.000000  0.000000
                       0.000000  0.000000
                       2.000000  2.000000  2.000000  2.000000  2.000000  2.000000
                       2.000000  2.000000  2.000000  2.000000  2.000000  2.000000
                       2.000000  1.962860  0.000000  0.000000  0.000000  0.000000
                       0.000000  0.000000
                       2.000000  2.000000  2.000000  2.000000  2.000000  2.000000
                       2.000000  2.000000  2.000000  2.000000  2.000000  2.000000
                       1.805619  1.805438  0.000000  0.000000  0.000000  0.000000
                       0.000000  0.000000
                       2.000000  2.000000  2.000000  2.000000  2.000000  2.000000
                       2.000000  2.000000  2.000000  2.000000  2.000000  2.000000
                       2.000000  1.962867  0.000000  0.000000  0.000000  0.000000
                       0.000000  0.000000
                       2.000000  2.000000  2.000000  2.000000  2.000000  2.000000
                       2.000000  2.000000  2.000000  2.000000  2.000000  1.968256
                       1.968215  0.000000  0.000000  0.000000  0.000000  0.000000
                       0.000000  0.000000
                       2.000000  2.000000  2.000000  2.000000  2.000000  2.000000
                       2.000000  2.000000  2.000000  2.000000  2.000000  1.995996
                       1.359508  0.000000  0.000000  0.000000  0.000000  0.000000
                       0.000000  0.000000
                       2.000000  2.000000  2.000000  2.000000  2.000000  2.000000
                       2.000000  2.000000  2.000000  2.000000  2.000000  2.000000
                       2.000000  1.962855  0.000000  0.000000  0.000000  0.000000
                       0.000000  0.000000
                       2.000000  2.000000  2.000000  2.000000  2.000000  2.000000
                       2.000000  2.000000  2.000000  2.000000  2.000000  2.000000
                       2.000000  2.000000  0.000000  0.000000  0.000000  0.000000
                       0.000000  0.000000
                       2.000000  2.000000  2.000000  2.000000  2.000000  2.000000
                       2.000000  2.000000  2.000000  2.000000  2.000000  2.000000
                       1.332560  1.331593  0.000000  0.000000  0.000000  0.000000
                       0.000000  0.000000
                       2.000000  2.000000  2.000000  2.000000  2.000000  2.000000
                       2.000000  2.000000  2.000000  2.000000  2.000000  2.000000
                       2.000000  2.000000  0.000000  0.000000  0.000000  0.000000
                       0.000000  0.000000
                       2.000000  2.000000  2.000000  2.000000  2.000000  2.000000
                       2.000000  2.000000  2.000000  2.000000  2.000000  2.000000
                       2.000000  1.962876  0.000000  0.000000  0.000000  0.000000
                       0.000000  0.000000
                       2.000000  2.000000  2.000000  2.000000  2.000000  2.000000
                       2.000000  2.000000  2.000000  2.000000  2.000000  2.000000
                       0.004225  0.004219  0.000000  0.000000  0.000000  0.000000
                       0.000000  0.000000
                       2.000000  2.000000  2.000000  2.000000  2.000000  2.000000
                       2.000000  2.000000  2.000000  2.000000  2.000000  2.000000
                       1.805596  1.805467  0.000000  0.000000  0.000000  0.000000
                       0.000000  0.000000
                       2.000000  2.000000  2.000000  2.000000  2.000000  2.000000
                       2.000000  2.000000  2.000000  2.000000  2.000000  2.000000
                       1.332272  1.331643  0.000000  0.000000  0.000000  0.000000
                       0.000000  0.000000
                       2.000000  2.000000  2.000000  2.000000  2.000000  2.000000
                       2.000000  2.000000  2.000000  2.000000  2.000000  2.000000
                       0.000000  0.000000  0.000000  0.000000  0.000000  0.000000
                       0.000000  0.000000
                       2.000000  2.000000  2.000000  2.000000  2.000000  2.000000
                       2.000000  2.000000  2.000000  2.000000  2.000000  2.000000
                       1.332413  1.331766  0.000000  0.000000  0.000000  0.000000
                       0.000000  0.000000
                       2.000000  2.000000  2.000000  2.000000  2.000000  2.000000
                       2.000000  2.000000  2.000000  2.000000  2.000000  2.000000
                       1.805585  1.805458  0.000000  0.000000  0.000000  0.000000
                       0.000000  0.000000
                       2.000000  2.000000  2.000000  2.000000  2.000000  2.000000
                       2.000000  2.000000  2.000000  2.000000  2.000000  1.995995
                       1.359537  0.000000  0.000000  0.000000  0.000000  0.000000
                       0.000000  0.000000
                       2.000000  2.000000  2.000000  2.000000  2.000000  2.000000
                       2.000000  2.000000  2.000000  2.000000  2.000000  2.000000
                       2.000000  1.962887  0.000000  0.000000  0.000000  0.000000
                       0.000000  0.000000
                       2.000000  2.000000  2.000000  2.000000  2.000000  2.000000
                       2.000000  2.000000  2.000000  2.000000  2.000000  2.000000
                       2.000000  2.000000  0.000000  0.000000  0.000000  0.000000
                       0.000000  0.000000
                       2.000000  2.000000  2.000000  2.000000  2.000000  2.000000
                       2.000000  2.000000  2.000000  2.000000  2.000000  2.000000
                       1.332509  1.331614  0.000000  0.000000  0.000000  0.000000
                       0.000000  0.000000
                       2.000000  2.000000  2.000000  2.000000  2.000000  2.000000
                       2.000000  2.000000  2.000000  2.000000  2.000000  2.000000
                       2.000000  2.000000  0.000000  0.000000  0.000000  0.000000
                       0.000000  0.000000
                       2.000000  2.000000  2.000000  2.000000  2.000000  2.000000
                       2.000000  2.000000  2.000000  2.000000  2.000000  2.000000
                       2.000000  1.962848  0.000000  0.000000  0.000000  0.000000
                       0.000000  0.000000
                       prtocc : prtvol=0, do not print more k-points.
           occopt           3
           prtden           0
           prteig           0
            prtwf           0
            rprim      6.2782139751E+00  0.0000000000E+00  0.0000000000E+00
                       0.0000000000E+00  6.2782139751E+00  0.0000000000E+00
                       0.0000000000E+00  0.0000000000E+00  6.2782139751E+00
          spgroup           1
           strten      1.8345320990E-06  1.8905956084E-06  1.9076431463E-06
                      -8.2414064218E-09  8.0348762025E-08 -1.0723898853E-07
           toldfe      5.00000000E-05 Hartree
           tsmear      1.00000000E-03 Hartree
            typat      1  1
              wtk        0.00463    0.00926    0.00926    0.00463    0.00926    0.00926
                         0.00926    0.00926    0.00926    0.00926    0.00926    0.00926
                         0.00926    0.00926    0.00926    0.00926    0.00463    0.00926
                         0.00926    0.00463    0.00926    0.00926    0.00926    0.00926
                         0.00926    0.00926    0.00926    0.00926    0.00926    0.00926
                         0.00926    0.00926    0.00926    0.00926    0.00926    0.00926
                         0.00926    0.00926    0.00926    0.00926    0.00926    0.00926
                         0.00926    0.00926    0.00926    0.00926    0.00926    0.00926
                         0.00926    0.00926
                       outvars : Printing only first  50 k-points.
           xangst      0.0000000000E+00  0.0000000000E+00  0.0000000000E+00
                       1.6611438731E+00  1.6611438731E+00  1.6611438731E+00
            xcart      0.0000000000E+00  0.0000000000E+00  0.0000000000E+00
                       3.1391069875E+00  3.1391069875E+00  3.1391069875E+00
             xred      0.0000000000E+00  0.0000000000E+00  0.0000000000E+00
                       5.0000000000E-01  5.0000000000E-01  5.0000000000E-01
            znucl       73.00000

================================================================================
  

================================================================================

 Suggested references for the acknowledgment of ABINIT usage.

 The users of ABINIT have little formal obligations with respect to the ABINIT group
 (those specified in the GNU General Public License, http://www.gnu.org/copyleft/gpl.txt).
 However, it is common practice in the scientific literature,
 to acknowledge the efforts of people that have made the research possible.
 In this spirit, please find below suggested citations of work written by ABINIT developers,
 corresponding to implementations inside of ABINIT that you have used in the present run.
 Note also that it will be of great value to readers of publications presenting these results,
 to read papers enabling them to understand the theoretical formalism and details
 of the ABINIT implementation.
 For information on why they are suggested, see also https://docs.abinit.org/theory/acknowledgments.
-
- [1] The Abinit project: Impact, environment and recent developments.
- Computer Phys. Comm. 248, 107042 (2020).
- X.Gonze, B. Amadon, G. Antonius, F.Arnardi, L.Baguet, J.-M.Beuken,
- J.Bieder, F.Bottin, J.Bouchet, E.Bousquet, N.Brouwer, F.Bruneval,
- G.Brunin, T.Cavignac, J.-B. Charraud, Wei Chen, M.Cote, S.Cottenier,
- J.Denier, G.Geneste, Ph.Ghosez, M.Giantomassi, Y.Gillet, O.Gingras,
- D.R.Hamann, G.Hautier, Xu He, N.Helbig, N.Holzwarth, Y.Jia, F.Jollet,
- W.Lafargue-Dit-Hauret, K.Lejaeghere, M.A.L.Marques, A.Martin, C.Martins,
- H.P.C. Miranda, F.Naccarato, K. Persson, G.Petretto, V.Planes, Y.Pouillon,
- S.Prokhorenko, F.Ricci, G.-M.Rignanese, A.H.Romero, M.M.Schmitt, M.Torrent,
- M.J.van Setten, B.Van Troeye, M.J.Verstraete, G.Zerah and J.W.Zwanzig
- Comment: the fifth generic paper describing the ABINIT project.
- Note that a version of this paper, that is not formatted for Computer Phys. Comm. 
- is available at https://www.abinit.org/sites/default/files/ABINIT20.pdf .
- The licence allows the authors to put it on the Web.
- DOI and bibtex: see https://docs.abinit.org/theory/bibliography/#gonze2020
-
- [2] Optimized norm-conserving Vanderbilt pseudopotentials.
- D.R. Hamann, Phys. Rev. B 88, 085117 (2013).
- Comment: Some pseudopotential generated using the ONCVPSP code were used.
- DOI and bibtex: see https://docs.abinit.org/theory/bibliography/#hamann2013
-
- [3] ABINIT: Overview, and focus on selected capabilities
- J. Chem. Phys. 152, 124102 (2020).
- A. Romero, D.C. Allan, B. Amadon, G. Antonius, T. Applencourt, L.Baguet,
- J.Bieder, F.Bottin, J.Bouchet, E.Bousquet, F.Bruneval,
- G.Brunin, D.Caliste, M.Cote,
- J.Denier, C. Dreyer, Ph.Ghosez, M.Giantomassi, Y.Gillet, O.Gingras,
- D.R.Hamann, G.Hautier, F.Jollet, G. Jomard,
- A.Martin, 
- H.P.C. Miranda, F.Naccarato, G.Petretto, N.A. Pike, V.Planes,
- S.Prokhorenko, T. Rangel, F.Ricci, G.-M.Rignanese, M.Royo, M.Stengel, M.Torrent,
- M.J.van Setten, B.Van Troeye, M.J.Verstraete, J.Wiktor, J.W.Zwanziger, and X.Gonze.
- Comment: a global overview of ABINIT, with focus on selected capabilities .
- Note that a version of this paper, that is not formatted for J. Chem. Phys 
- is available at https://www.abinit.org/sites/default/files/ABINIT20_JPC.pdf .
- The licence allows the authors to put it on the Web.
- DOI and bibtex: see https://docs.abinit.org/theory/bibliography/#romero2020
-
- [4] Recent developments in the ABINIT software package.
- Computer Phys. Comm. 205, 106 (2016).
- X.Gonze, F.Jollet, F.Abreu Araujo, D.Adams, B.Amadon, T.Applencourt,
- C.Audouze, J.-M.Beuken, J.Bieder, A.Bokhanchuk, E.Bousquet, F.Bruneval
- D.Caliste, M.Cote, F.Dahm, F.Da Pieve, M.Delaveau, M.Di Gennaro,
- B.Dorado, C.Espejo, G.Geneste, L.Genovese, A.Gerossier, M.Giantomassi,
- Y.Gillet, D.R.Hamann, L.He, G.Jomard, J.Laflamme Janssen, S.Le Roux,
- A.Levitt, A.Lherbier, F.Liu, I.Lukacevic, A.Martin, C.Martins,
- M.J.T.Oliveira, S.Ponce, Y.Pouillon, T.Rangel, G.-M.Rignanese,
- A.H.Romero, B.Rousseau, O.Rubel, A.A.Shukri, M.Stankovski, M.Torrent,
- M.J.Van Setten, B.Van Troeye, M.J.Verstraete, D.Waroquier, J.Wiktor,
- B.Xu, A.Zhou, J.W.Zwanziger.
- Comment: the fourth generic paper describing the ABINIT project.
- Note that a version of this paper, that is not formatted for Computer Phys. Comm. 
- is available at https://www.abinit.org/sites/default/files/ABINIT16.pdf .
- The licence allows the authors to put it on the Web.
- DOI and bibtex: see https://docs.abinit.org/theory/bibliography/#gonze2016
-
- And optionally:
-
- [5] ABINIT: First-principles approach of materials and nanosystem properties.
- Computer Phys. Comm. 180, 2582-2615 (2009).
- X. Gonze, B. Amadon, P.-M. Anglade, J.-M. Beuken, F. Bottin, P. Boulanger, F. Bruneval,
- D. Caliste, R. Caracas, M. Cote, T. Deutsch, L. Genovese, Ph. Ghosez, M. Giantomassi
- S. Goedecker, D.R. Hamann, P. Hermet, F. Jollet, G. Jomard, S. Leroux, M. Mancini, S. Mazevet,
- M.J.T. Oliveira, G. Onida, Y. Pouillon, T. Rangel, G.-M. Rignanese, D. Sangalli, R. Shaltaf,
- M. Torrent, M.J. Verstraete, G. Zerah, J.W. Zwanziger
- Comment: the third generic paper describing the ABINIT project.
- Note that a version of this paper, that is not formatted for Computer Phys. Comm. 
- is available at https://www.abinit.org/sites/default/files/ABINIT_CPC_v10.pdf .
- The licence allows the authors to put it on the Web.
- DOI and bibtex: see https://docs.abinit.org/theory/bibliography/#gonze2009
 Proc.   0 individual time (sec): cpu=       2462.9  wall=       2469.6

 Calculation completed.
.Delivered   0 WARNINGs and   5 COMMENTs to log file.

--- !FinalSummary
program: abinit
version: 9.6.1
start_datetime: Tue Nov 08 10:28:20 2022
end_datetime: Tue Nov 08 11:09:30 2022
overall_cpu_time:        2462.9
overall_wall_time:        2469.6
exit_requested_by_user: no 
timelimit: 0
pseudos: 
    Ta  : 97eeb710944842859ff923742b94e1e6
usepaw: 0
mpi_procs: 1
omp_threads: 1
num_warnings: 0
num_comments: 5
...
---------------------------------------
Begin Slurm Epilog: Nov-08-2022 11:11:32
Job ID:        215834
Array Job ID:  _4294967294
User ID:       bzhang376
Account:       hive-phanish6
Job name:      AbiTaNoS
Resources:     cpu=1,mem=7G,node=1
Rsrc Used:     cput=00:41:12,vmem=7036K,walltime=00:41:12,mem=5948K,energy_used=0
Partition:     hive
Nodes:         atl1-1-01-015-37-2
---------------------------------------
