
     Program PWSCF v.7.0 starts on 21Sep2022 at 11:47:50 

     This program is part of the open-source Quantum ESPRESSO suite
     for quantum simulation of materials; please cite
         "P. Giannozzi et al., J. Phys.:Condens. Matter 21 395502 (2009);
         "P. Giannozzi et al., J. Phys.:Condens. Matter 29 465901 (2017);
         "P. Giannozzi et al., J. Chem. Phys. 152 154105 (2020);
          URL http://www.quantum-espresso.org", 
     in publications or presentations arising from this work. More details at
     http://www.quantum-espresso.org/quote

     Parallel version (MPI), running on     8 processors

     MPI processes distributed on     1 nodes
     R & G space division:  proc/nbgrp/npool/nimage =       8
     155802 MiB available memory on the printing compute node when the environment starts

     Reading input from pw.inp

     Current dimensions of program PWSCF are:
     Max number of different atomic species (ntypx) = 10
     Max number of k-points (npk) =  40000
     Max angular momentum in pseudopotentials (lmaxx) =  4
     Message from routine cell_base_init:
     DEPRECATED: use true lattice parameter, not A to a.u. conversion factor

     IMPORTANT: XC functional enforced from input :
     Exchange-correlation= VDW-DF
                           (   1   4   4   0   1   0   0)
     Any further DFT definition will be discarded
     Please, verify this is what you really want


     Subspace diagonalization in iterative solution of the eigenvalue problem:
     one sub-group per band group will be used
     scalapack distributed-memory algorithm (size of sub-group:  2*  2 procs)


     Parallelization info
     --------------------
     sticks:   dense  smooth     PW     G-vecs:    dense   smooth      PW
     Min        1026    1026    267                69917    69917    9299
     Max        1027    1027    268                69920    69920    9300
     Sum        8215    8215   2139               559351   559351   74395

     Using Slab Decomposition



     bravais-lattice index     =            0
     lattice parameter (alat)  =       1.1500  a.u.
     unit-cell volume          =    1463.8546 (a.u.)^3
     number of atoms/cell      =           14
     number of atomic types    =            3
     number of electrons       =       100.00
     number of Kohn-Sham states=           65
     kinetic-energy cutoff     =     200.0000  Ry
     charge density cutoff     =     800.0000  Ry
     scf convergence threshold =      1.0E-06
     mixing beta               =       0.7000
     number of iterations used =            8  plain     mixing
     Exchange-correlation= VDW-DF
                           (   1   4   4   0   1   0   0)

     celldm(1)=   1.150000  celldm(2)=   0.000000  celldm(3)=   0.000000
     celldm(4)=   0.000000  celldm(5)=   0.000000  celldm(6)=   0.000000

     crystal axes: (cart. coord. in units of alat)
               a(1) = (   0.000000  10.137047   0.000000 )  
               a(2) = (   9.612603   0.000000   0.000000 )  
               a(3) = (   0.000000  -5.745581  -9.877611 )  

     reciprocal axes: (cart. coord. in units 2 pi/alat)
               b(1) = (  0.000000  0.098648 -0.057381 )  
               b(2) = (  0.104030 -0.000000  0.000000 )  
               b(3) = (  0.000000  0.000000 -0.101239 )  


     PseudoPot. # 1 for Ni read from file:
     ./28_Ni_18_1.7_2.2_pbe_n_v1.0.upf
     MD5 check sum: 081853746d39b5abdc129692a5e93361
     Pseudo is Norm-conserving + core correction, Zval = 18.0
     Generated using ONCVPSP code by D. R. Hamann
     Using radial grid of 1370 points,  6 beta functions with: 
                l(1) =   0
                l(2) =   0
                l(3) =   1
                l(4) =   1
                l(5) =   2
                l(6) =   2

     PseudoPot. # 2 for C  read from file:
     ./06_C_4_1.2_1.2_pbe_n_v1.0.upf
     MD5 check sum: 7e0e17a2517474b8bea671dc4b65026c
     Pseudo is Norm-conserving + core correction, Zval =  4.0
     Generated using ONCVPSP code by D. R. Hamann
     Using radial grid of 1246 points,  4 beta functions with: 
                l(1) =   0
                l(2) =   0
                l(3) =   1
                l(4) =   1

     PseudoPot. # 3 for O  read from file:
     ./08_O_6_1.2_1.4_pbe_n_v1.0.upf
     MD5 check sum: a8b7f44dbbd6106bf79c6036dc5c6a43
     Pseudo is Norm-conserving + core correction, Zval =  6.0
     Generated using ONCVPSP code by D. R. Hamann
     Using radial grid of  934 points,  5 beta functions with: 
                l(1) =   0
                l(2) =   0
                l(3) =   1
                l(4) =   1
                l(5) =   2

     atomic species   valence    mass     pseudopotential
        Ni            18.00    59.00000     Ni( 1.00)
        C              4.00    12.00000     C ( 1.00)
        O              6.00    16.00000     O ( 1.00)

     Starting magnetic structure 
     atomic species   magnetization
        Ni           1.000
        C            0.000
        O            0.000

     No symmetry found


                                    s                        frac. trans.

      isym =  1     identity                                     

 cryst.   s( 1) = (     1          0          0      )
                  (     0          1          0      )
                  (     0          0          1      )

 cart.    s( 1) = (  1.0000000  0.0000000  0.0000000 )
                  (  0.0000000  1.0000000  0.0000000 )
                  (  0.0000000  0.0000000  1.0000000 )


   Cartesian axes

     site n.     atom                  positions (alat units)
         1           Ni  tau(   1) = (   4.8063017  -2.8727903  -4.9388055  )
         2           Ni  tau(   2) = (   0.0000000   0.0000000   0.0000000  )
         3           C   tau(   3) = (   5.9644954   2.2506991  -4.0580090  )
         4           C   tau(   4) = (   1.1581937   5.0135579  -0.8807964  )
         5           C   tau(   5) = (   3.6481079   2.1407676  -5.8196019  )
         6           C   tau(   6) = (   8.4544096  -0.6220912  -8.9968145  )
         7           O   tau(   7) = (   2.8122056   4.2227277  -6.7025319  )
         8           O   tau(   8) = (   7.6185072  -2.7040513  -8.1138845  )
         9           O   tau(   9) = (   6.8003978   0.1687390  -3.1750790  )
        10           O   tau(  10) = (   1.9940961   7.0955180  -1.7637265  )
        11           O   tau(  11) = (   6.8795095   4.4078477  -3.6179615  )
        12           O   tau(  12) = (   2.0732078   2.8564094  -1.3208440  )
        13           O   tau(  13) = (   2.7330938  -0.0163809  -6.2596495  )
        14           O   tau(  14) = (   7.5393955   1.5350574  -8.5567669  )

   Crystallographic axes

     site n.     atom                  positions (cryst. coord.)
         1           Ni  tau(   1) = ( -0.0000000  0.5000000  0.5000000  )
         2           Ni  tau(   2) = (  0.0000000  0.0000000  0.0000000  )
         3           C   tau(   3) = (  0.4548810  0.6204870  0.4108290  )
         4           C   tau(   4) = (  0.5451190  0.1204870  0.0891710  )
         5           C   tau(   5) = (  0.5451190  0.3795130  0.5891710  )
         6           C   tau(   6) = (  0.4548810  0.8795130  0.9108290  )
         7           O   tau(   7) = (  0.8011640  0.2925540  0.6785580  )
         8           O   tau(   8) = (  0.1988360  0.7925540  0.8214420  )
         9           O   tau(   9) = (  0.1988360  0.7074460  0.3214420  )
        10           O   tau(  10) = (  0.8011640  0.2074460  0.1785580  )
        11           O   tau(  11) = (  0.6424290  0.7156760  0.3662790  )
        12           O   tau(  12) = (  0.3575710  0.2156760  0.1337210  )
        13           O   tau(  13) = (  0.3575710  0.2843240  0.6337210  )
        14           O   tau(  14) = (  0.6424290  0.7843240  0.8662790  )

     number of k points=     4  Fermi-Dirac smearing, width (Ry)=  0.0020
                       cart. coord. in units 2pi/alat
        k(    1) = (   0.0260075   0.0246620  -0.0396551), wk =   0.2500000
        k(    2) = (   0.0260075   0.0246620   0.0109644), wk =   0.2500000
        k(    3) = (  -0.0260075   0.0246620  -0.0396551), wk =   0.2500000
        k(    4) = (  -0.0260075   0.0246620   0.0109644), wk =   0.2500000

                       cryst. coord.
        k(    1) = (   0.2500000   0.2500000   0.2500000), wk =   0.2500000
        k(    2) = (   0.2500000   0.2500000  -0.2500000), wk =   0.2500000
        k(    3) = (   0.2500000  -0.2500000   0.2500000), wk =   0.2500000
        k(    4) = (   0.2500000  -0.2500000  -0.2500000), wk =   0.2500000

     Dense  grid:   559351 G-vectors     FFT dimensions: ( 108, 100, 120)

     Dynamical RAM for                 wfc:       8.67 MB

     Dynamical RAM for     wfc (w. buffer):      78.01 MB

     Dynamical RAM for           str. fact:       3.20 MB

     Dynamical RAM for           local pot:       0.00 MB

     Dynamical RAM for          nlocal pot:      22.94 MB

     Dynamical RAM for                qrad:       6.81 MB

     Dynamical RAM for          rho,v,vnew:      13.82 MB

     Dynamical RAM for               rhoin:       4.61 MB

     Dynamical RAM for            rho*nmix:      34.14 MB

     Dynamical RAM for           G-vectors:       4.53 MB

     Dynamical RAM for          h,s,v(r/c):       0.19 MB

     Dynamical RAM for          <psi|beta>:       0.17 MB

     Dynamical RAM for                 psi:      17.34 MB

     Dynamical RAM for                hpsi:      17.34 MB

     Dynamical RAM for      wfcinit/wfcrot:      17.43 MB

     Estimated static dynamical RAM per process >     145.59 MB

     Estimated max dynamical RAM per process >     214.77 MB

     Estimated total dynamical RAM >       1.68 GB
     Generating pointlists ...
     new r_m :   1.5545 (alat units)  1.7877 (a.u.) for type    1
     new r_m :   0.9835 (alat units)  1.1310 (a.u.) for type    2
     new r_m :   0.9835 (alat units)  1.1310 (a.u.) for type    3

     Initial potential from superposition of free atoms

     starting charge      99.9993, renormalised to     100.0000


     %%%%%%%%%%%%%%%%%%%%%%%%%%%%%%%%%%%%%%%%%%%%%%%%%%%%%%%%%%%%%%%%%%%%%%%%
     %                                                                      %
     % You are using vdW-DF, which was implemented by the Thonhauser group. %
     % Please cite the following two papers that made this development      %
     % possible and the two reviews that describe the various versions:     %
     %                                                                      %
     %   T. Thonhauser et al., PRL 115, 136402 (2015).                      %
     %   T. Thonhauser et al., PRB 76, 125112 (2007).                       %
     %   K. Berland et al., Rep. Prog. Phys. 78, 066501 (2015).             %
     %   D.C. Langreth et al., J. Phys.: Condens. Matter 21, 084203 (2009). %
     %                                                                      %
     %                                                                      %
     % If you are calculating the stress with vdW-DF, please also cite:     %
     %                                                                      %
     %   R. Sabatini et al., J. Phys.: Condens. Matter 24, 424209 (2012).   %
     %                                                                      %
     %%%%%%%%%%%%%%%%%%%%%%%%%%%%%%%%%%%%%%%%%%%%%%%%%%%%%%%%%%%%%%%%%%%%%%%%


     Carrying out vdW-DF run using the following parameters:
     Nqs    =  20  Npoints =  1024  r_max =  100.000
     q_mesh =  0.00001000  0.04494208  0.09755937  0.15916263
               0.23128650  0.31572767  0.41458969  0.53033537
               0.66584808  0.82450364  1.01025438  1.22772762
               1.48234092  1.78043706  2.12944203  2.53805004
               3.01644009  3.57652955  4.23227104  5.00000000


     -----------------------------------------------
     Non-local corr. energy    =       1.61098814 Ry
     -----------------------------------------------

     Starting wfcs are random

     total cpu time spent up to now is       44.6 secs

     per-process dynamical memory:   215.4 Mb

     Self-consistent Calculation

     iteration #  1     ecut=   200.00 Ry     beta= 0.70
     Davidson diagonalization with overlap

---- Real-time Memory Report at c_bands before calling an iterative solver
           251 MiB given to the printing process from OS
           210 MiB allocation reported by mallinfo(arena+hblkhd)
        154139 MiB available memory on the node where the printing process lives
------------------
     ethr =  1.00E-02,  avg # of iterations = 13.2


     -----------------------------------------------
     Non-local corr. energy    =       1.78632262 Ry
     -----------------------------------------------


     total cpu time spent up to now is       96.5 secs

     total energy              =    -928.53578976 Ry
     estimated scf accuracy    <      21.01204758 Ry

     total magnetization       =    12.00 Bohr mag/cell
     absolute magnetization    =    12.05 Bohr mag/cell

     iteration #  2     ecut=   200.00 Ry     beta= 0.70
     Davidson diagonalization with overlap

---- Real-time Memory Report at c_bands before calling an iterative solver
           351 MiB given to the printing process from OS
           304 MiB allocation reported by mallinfo(arena+hblkhd)
        153378 MiB available memory on the node where the printing process lives
------------------
     ethr =  1.00E-02,  avg # of iterations =  5.0


     -----------------------------------------------
     Non-local corr. energy    =       1.78175857 Ry
     -----------------------------------------------


     total cpu time spent up to now is      117.2 secs

     total energy              =    -930.13481127 Ry
     estimated scf accuracy    <      95.00004551 Ry

     total magnetization       =     1.00 Bohr mag/cell
     absolute magnetization    =     2.16 Bohr mag/cell

     iteration #  3     ecut=   200.00 Ry     beta= 0.70
     Davidson diagonalization with overlap

---- Real-time Memory Report at c_bands before calling an iterative solver
           355 MiB given to the printing process from OS
           309 MiB allocation reported by mallinfo(arena+hblkhd)
        153347 MiB available memory on the node where the printing process lives
------------------
     ethr =  1.00E-02,  avg # of iterations =  2.0


     -----------------------------------------------
     Non-local corr. energy    =       1.82636978 Ry
     -----------------------------------------------


     total cpu time spent up to now is      132.9 secs

     total energy              =    -937.87696698 Ry
     estimated scf accuracy    <      13.69879828 Ry

     total magnetization       =     0.55 Bohr mag/cell
     absolute magnetization    =     1.03 Bohr mag/cell

     iteration #  4     ecut=   200.00 Ry     beta= 0.70
     Davidson diagonalization with overlap

---- Real-time Memory Report at c_bands before calling an iterative solver
           360 MiB given to the printing process from OS
           313 MiB allocation reported by mallinfo(arena+hblkhd)
        153312 MiB available memory on the node where the printing process lives
------------------
     ethr =  1.00E-02,  avg # of iterations =  2.0


     -----------------------------------------------
     Non-local corr. energy    =       1.91445190 Ry
     -----------------------------------------------


     total cpu time spent up to now is      145.6 secs

     total energy              =    -938.08603137 Ry
     estimated scf accuracy    <       9.26139395 Ry

     total magnetization       =     0.29 Bohr mag/cell
     absolute magnetization    =     1.71 Bohr mag/cell

     iteration #  5     ecut=   200.00 Ry     beta= 0.70
     Davidson diagonalization with overlap

---- Real-time Memory Report at c_bands before calling an iterative solver
           364 MiB given to the printing process from OS
           317 MiB allocation reported by mallinfo(arena+hblkhd)
        153275 MiB available memory on the node where the printing process lives
------------------
     ethr =  9.26E-03,  avg # of iterations =  2.0


     -----------------------------------------------
     Non-local corr. energy    =       1.86565945 Ry
     -----------------------------------------------


     total cpu time spent up to now is      158.7 secs

     total energy              =    -936.25959178 Ry
     estimated scf accuracy    <      53.76861122 Ry

     total magnetization       =     4.00 Bohr mag/cell
     absolute magnetization    =     5.09 Bohr mag/cell

     iteration #  6     ecut=   200.00 Ry     beta= 0.70
     Davidson diagonalization with overlap

---- Real-time Memory Report at c_bands before calling an iterative solver
           368 MiB given to the printing process from OS
           321 MiB allocation reported by mallinfo(arena+hblkhd)
        153239 MiB available memory on the node where the printing process lives
------------------
     ethr =  9.26E-03,  avg # of iterations =  2.0


     -----------------------------------------------
     Non-local corr. energy    =       1.86314615 Ry
     -----------------------------------------------


     total cpu time spent up to now is      172.1 secs

     total energy              =    -939.82374939 Ry
     estimated scf accuracy    <       2.76842632 Ry

     total magnetization       =     0.46 Bohr mag/cell
     absolute magnetization    =     0.69 Bohr mag/cell

     iteration #  7     ecut=   200.00 Ry     beta= 0.70
     Davidson diagonalization with overlap

---- Real-time Memory Report at c_bands before calling an iterative solver
           372 MiB given to the printing process from OS
           326 MiB allocation reported by mallinfo(arena+hblkhd)
        153207 MiB available memory on the node where the printing process lives
------------------
     ethr =  2.77E-03,  avg # of iterations =  2.0


     -----------------------------------------------
     Non-local corr. energy    =       1.86308620 Ry
     -----------------------------------------------


     total cpu time spent up to now is      184.8 secs

     total energy              =    -939.95323509 Ry
     estimated scf accuracy    <       5.44236333 Ry

     total magnetization       =    -0.75 Bohr mag/cell
     absolute magnetization    =     0.84 Bohr mag/cell

     iteration #  8     ecut=   200.00 Ry     beta= 0.70
     Davidson diagonalization with overlap

---- Real-time Memory Report at c_bands before calling an iterative solver
           377 MiB given to the printing process from OS
           330 MiB allocation reported by mallinfo(arena+hblkhd)
        153173 MiB available memory on the node where the printing process lives
------------------
     ethr =  2.77E-03,  avg # of iterations =  1.0


     -----------------------------------------------
     Non-local corr. energy    =       1.86435049 Ry
     -----------------------------------------------


     total cpu time spent up to now is      196.9 secs

     total energy              =    -939.99874002 Ry
     estimated scf accuracy    <       1.90131619 Ry

     total magnetization       =    -0.57 Bohr mag/cell
     absolute magnetization    =     0.63 Bohr mag/cell

     iteration #  9     ecut=   200.00 Ry     beta= 0.70
     Davidson diagonalization with overlap

---- Real-time Memory Report at c_bands before calling an iterative solver
           381 MiB given to the printing process from OS
           334 MiB allocation reported by mallinfo(arena+hblkhd)
        153138 MiB available memory on the node where the printing process lives
------------------
     ethr =  1.90E-03,  avg # of iterations =  1.6


     -----------------------------------------------
     Non-local corr. energy    =       1.86592146 Ry
     -----------------------------------------------


     total cpu time spent up to now is      209.2 secs

     total energy              =    -940.09385859 Ry
     estimated scf accuracy    <       0.78448914 Ry

     total magnetization       =    -1.39 Bohr mag/cell
     absolute magnetization    =     1.42 Bohr mag/cell

     iteration # 10     ecut=   200.00 Ry     beta= 0.70
     Davidson diagonalization with overlap

---- Real-time Memory Report at c_bands before calling an iterative solver
           385 MiB given to the printing process from OS
           338 MiB allocation reported by mallinfo(arena+hblkhd)
        153103 MiB available memory on the node where the printing process lives
------------------
     ethr =  7.84E-04,  avg # of iterations =  2.9


     -----------------------------------------------
     Non-local corr. energy    =       1.86681795 Ry
     -----------------------------------------------


     total cpu time spent up to now is      222.0 secs

     total energy              =    -940.10372614 Ry
     estimated scf accuracy    <       0.40179764 Ry

     total magnetization       =    -2.00 Bohr mag/cell
     absolute magnetization    =     2.00 Bohr mag/cell

     iteration # 11     ecut=   200.00 Ry     beta= 0.70
     Davidson diagonalization with overlap

---- Real-time Memory Report at c_bands before calling an iterative solver
           385 MiB given to the printing process from OS
           338 MiB allocation reported by mallinfo(arena+hblkhd)
        153101 MiB available memory on the node where the printing process lives
------------------
     ethr =  4.02E-04,  avg # of iterations =  4.5


     -----------------------------------------------
     Non-local corr. energy    =       1.86591454 Ry
     -----------------------------------------------


     total cpu time spent up to now is      235.2 secs

     total energy              =    -940.11665467 Ry
     estimated scf accuracy    <       0.15385513 Ry

     total magnetization       =    -2.85 Bohr mag/cell
     absolute magnetization    =     2.86 Bohr mag/cell

     iteration # 12     ecut=   200.00 Ry     beta= 0.70
     Davidson diagonalization with overlap

---- Real-time Memory Report at c_bands before calling an iterative solver
           385 MiB given to the printing process from OS
           338 MiB allocation reported by mallinfo(arena+hblkhd)
        153100 MiB available memory on the node where the printing process lives
------------------
     ethr =  1.54E-04,  avg # of iterations =  5.4


     -----------------------------------------------
     Non-local corr. energy    =       1.86765197 Ry
     -----------------------------------------------


     total cpu time spent up to now is      248.7 secs

     total energy              =    -940.11717611 Ry
     estimated scf accuracy    <       0.16746335 Ry

     total magnetization       =    -2.72 Bohr mag/cell
     absolute magnetization    =     2.73 Bohr mag/cell

     iteration # 13     ecut=   200.00 Ry     beta= 0.70
     Davidson diagonalization with overlap

---- Real-time Memory Report at c_bands before calling an iterative solver
           385 MiB given to the printing process from OS
           338 MiB allocation reported by mallinfo(arena+hblkhd)
        153100 MiB available memory on the node where the printing process lives
------------------
     ethr =  1.54E-04,  avg # of iterations =  1.4


     -----------------------------------------------
     Non-local corr. energy    =       1.86700406 Ry
     -----------------------------------------------


     total cpu time spent up to now is      261.3 secs

     total energy              =    -940.12025337 Ry
     estimated scf accuracy    <       0.16443852 Ry

     total magnetization       =    -2.64 Bohr mag/cell
     absolute magnetization    =     2.65 Bohr mag/cell

     iteration # 14     ecut=   200.00 Ry     beta= 0.70
     Davidson diagonalization with overlap

---- Real-time Memory Report at c_bands before calling an iterative solver
           385 MiB given to the printing process from OS
           338 MiB allocation reported by mallinfo(arena+hblkhd)
        153099 MiB available memory on the node where the printing process lives
------------------
     ethr =  1.54E-04,  avg # of iterations =  1.1


     -----------------------------------------------
     Non-local corr. energy    =       1.86832139 Ry
     -----------------------------------------------


     total cpu time spent up to now is      273.4 secs

     total energy              =    -940.10850795 Ry
     estimated scf accuracy    <       0.16231256 Ry

     total magnetization       =    -2.53 Bohr mag/cell
     absolute magnetization    =     2.55 Bohr mag/cell

     iteration # 15     ecut=   200.00 Ry     beta= 0.70
     Davidson diagonalization with overlap

---- Real-time Memory Report at c_bands before calling an iterative solver
           385 MiB given to the printing process from OS
           338 MiB allocation reported by mallinfo(arena+hblkhd)
        153100 MiB available memory on the node where the printing process lives
------------------
     ethr =  1.54E-04,  avg # of iterations =  2.4


     -----------------------------------------------
     Non-local corr. energy    =       1.86908504 Ry
     -----------------------------------------------


     total cpu time spent up to now is      286.1 secs

     total energy              =    -940.15287757 Ry
     estimated scf accuracy    <       0.13092176 Ry

     total magnetization       =    -3.95 Bohr mag/cell
     absolute magnetization    =     3.96 Bohr mag/cell

     iteration # 16     ecut=   200.00 Ry     beta= 0.70
     Davidson diagonalization with overlap

---- Real-time Memory Report at c_bands before calling an iterative solver
           386 MiB given to the printing process from OS
           338 MiB allocation reported by mallinfo(arena+hblkhd)
        153101 MiB available memory on the node where the printing process lives
------------------
     ethr =  1.31E-04,  avg # of iterations =  1.0


     -----------------------------------------------
     Non-local corr. energy    =       1.86691066 Ry
     -----------------------------------------------


     total cpu time spent up to now is      298.1 secs

     total energy              =    -940.18287821 Ry
     estimated scf accuracy    <       0.10140492 Ry

     total magnetization       =    -4.00 Bohr mag/cell
     absolute magnetization    =     4.01 Bohr mag/cell

     iteration # 17     ecut=   200.00 Ry     beta= 0.70
     Davidson diagonalization with overlap

---- Real-time Memory Report at c_bands before calling an iterative solver
           386 MiB given to the printing process from OS
           338 MiB allocation reported by mallinfo(arena+hblkhd)
        153100 MiB available memory on the node where the printing process lives
------------------
     ethr =  1.01E-04,  avg # of iterations =  1.4


     -----------------------------------------------
     Non-local corr. energy    =       1.86487877 Ry
     -----------------------------------------------


     total cpu time spent up to now is      310.3 secs

     total energy              =    -940.18303767 Ry
     estimated scf accuracy    <       0.10705889 Ry

     total magnetization       =    -4.00 Bohr mag/cell
     absolute magnetization    =     4.03 Bohr mag/cell

     iteration # 18     ecut=   200.00 Ry     beta= 0.70
     Davidson diagonalization with overlap

---- Real-time Memory Report at c_bands before calling an iterative solver
           386 MiB given to the printing process from OS
           338 MiB allocation reported by mallinfo(arena+hblkhd)
        153100 MiB available memory on the node where the printing process lives
------------------
     ethr =  1.01E-04,  avg # of iterations =  2.0


     -----------------------------------------------
     Non-local corr. energy    =       1.86452948 Ry
     -----------------------------------------------


     total cpu time spent up to now is      323.1 secs

     total energy              =    -940.19264484 Ry
     estimated scf accuracy    <       0.02327525 Ry

     total magnetization       =    -4.00 Bohr mag/cell
     absolute magnetization    =     4.09 Bohr mag/cell

     iteration # 19     ecut=   200.00 Ry     beta= 0.70
     Davidson diagonalization with overlap

---- Real-time Memory Report at c_bands before calling an iterative solver
           386 MiB given to the printing process from OS
           338 MiB allocation reported by mallinfo(arena+hblkhd)
        153100 MiB available memory on the node where the printing process lives
------------------
     ethr =  2.33E-05,  avg # of iterations =  2.5


     -----------------------------------------------
     Non-local corr. energy    =       1.86386068 Ry
     -----------------------------------------------


     total cpu time spent up to now is      335.8 secs

     total energy              =    -940.19338441 Ry
     estimated scf accuracy    <       0.01069869 Ry

     total magnetization       =    -4.00 Bohr mag/cell
     absolute magnetization    =     4.10 Bohr mag/cell

     iteration # 20     ecut=   200.00 Ry     beta= 0.70
     Davidson diagonalization with overlap

---- Real-time Memory Report at c_bands before calling an iterative solver
           386 MiB given to the printing process from OS
           338 MiB allocation reported by mallinfo(arena+hblkhd)
        153100 MiB available memory on the node where the printing process lives
------------------
     ethr =  1.07E-05,  avg # of iterations =  7.8


     -----------------------------------------------
     Non-local corr. energy    =       1.86339610 Ry
     -----------------------------------------------


     total cpu time spent up to now is      349.6 secs

     total energy              =    -940.19320084 Ry
     estimated scf accuracy    <       0.00675131 Ry

     total magnetization       =    -4.00 Bohr mag/cell
     absolute magnetization    =     4.12 Bohr mag/cell

     iteration # 21     ecut=   200.00 Ry     beta= 0.70
     Davidson diagonalization with overlap

---- Real-time Memory Report at c_bands before calling an iterative solver
           386 MiB given to the printing process from OS
           338 MiB allocation reported by mallinfo(arena+hblkhd)
        153100 MiB available memory on the node where the printing process lives
------------------
     ethr =  6.75E-06,  avg # of iterations =  2.1


     -----------------------------------------------
     Non-local corr. energy    =       1.86347256 Ry
     -----------------------------------------------


     total cpu time spent up to now is      362.2 secs

     total energy              =    -940.19393326 Ry
     estimated scf accuracy    <       0.00108478 Ry

     total magnetization       =    -4.00 Bohr mag/cell
     absolute magnetization    =     4.13 Bohr mag/cell

     iteration # 22     ecut=   200.00 Ry     beta= 0.70
     Davidson diagonalization with overlap

---- Real-time Memory Report at c_bands before calling an iterative solver
           386 MiB given to the printing process from OS
           338 MiB allocation reported by mallinfo(arena+hblkhd)
        153098 MiB available memory on the node where the printing process lives
------------------
     ethr =  1.08E-06,  avg # of iterations =  9.4


     -----------------------------------------------
     Non-local corr. energy    =       1.86366527 Ry
     -----------------------------------------------


     total cpu time spent up to now is      378.9 secs

     total energy              =    -940.19411404 Ry
     estimated scf accuracy    <       0.00051054 Ry

     total magnetization       =    -4.00 Bohr mag/cell
     absolute magnetization    =     4.14 Bohr mag/cell

     iteration # 23     ecut=   200.00 Ry     beta= 0.70
     Davidson diagonalization with overlap

---- Real-time Memory Report at c_bands before calling an iterative solver
           386 MiB given to the printing process from OS
           338 MiB allocation reported by mallinfo(arena+hblkhd)
        153098 MiB available memory on the node where the printing process lives
------------------
     ethr =  5.11E-07,  avg # of iterations =  2.0


     -----------------------------------------------
     Non-local corr. energy    =       1.86378714 Ry
     -----------------------------------------------


     total cpu time spent up to now is      391.7 secs

     total energy              =    -940.19416140 Ry
     estimated scf accuracy    <       0.00016970 Ry

     total magnetization       =    -4.00 Bohr mag/cell
     absolute magnetization    =     4.14 Bohr mag/cell

     iteration # 24     ecut=   200.00 Ry     beta= 0.70
     Davidson diagonalization with overlap

---- Real-time Memory Report at c_bands before calling an iterative solver
           386 MiB given to the printing process from OS
           338 MiB allocation reported by mallinfo(arena+hblkhd)
        153099 MiB available memory on the node where the printing process lives
------------------
     ethr =  1.70E-07,  avg # of iterations =  2.0


     -----------------------------------------------
     Non-local corr. energy    =       1.86374022 Ry
     -----------------------------------------------


     total cpu time spent up to now is      406.0 secs

     total energy              =    -940.19418114 Ry
     estimated scf accuracy    <       0.00022832 Ry

     total magnetization       =    -4.00 Bohr mag/cell
     absolute magnetization    =     4.14 Bohr mag/cell

     iteration # 25     ecut=   200.00 Ry     beta= 0.70
     Davidson diagonalization with overlap

---- Real-time Memory Report at c_bands before calling an iterative solver
           386 MiB given to the printing process from OS
           338 MiB allocation reported by mallinfo(arena+hblkhd)
        153099 MiB available memory on the node where the printing process lives
------------------
     ethr =  1.70E-07,  avg # of iterations =  1.0


     -----------------------------------------------
     Non-local corr. energy    =       1.86376052 Ry
     -----------------------------------------------


     total cpu time spent up to now is      418.0 secs

     total energy              =    -940.19421566 Ry
     estimated scf accuracy    <       0.00001276 Ry

     total magnetization       =    -4.00 Bohr mag/cell
     absolute magnetization    =     4.14 Bohr mag/cell

     iteration # 26     ecut=   200.00 Ry     beta= 0.70
     Davidson diagonalization with overlap

---- Real-time Memory Report at c_bands before calling an iterative solver
           386 MiB given to the printing process from OS
           338 MiB allocation reported by mallinfo(arena+hblkhd)
        153099 MiB available memory on the node where the printing process lives
------------------
     ethr =  1.28E-08,  avg # of iterations =  2.0


     -----------------------------------------------
     Non-local corr. energy    =       1.86375505 Ry
     -----------------------------------------------


     total cpu time spent up to now is      432.2 secs

     total energy              =    -940.19421927 Ry
     estimated scf accuracy    <       0.00000990 Ry

     total magnetization       =    -4.00 Bohr mag/cell
     absolute magnetization    =     4.14 Bohr mag/cell

     iteration # 27     ecut=   200.00 Ry     beta= 0.70
     Davidson diagonalization with overlap

---- Real-time Memory Report at c_bands before calling an iterative solver
           386 MiB given to the printing process from OS
           338 MiB allocation reported by mallinfo(arena+hblkhd)
        153098 MiB available memory on the node where the printing process lives
------------------
     ethr =  9.90E-09,  avg # of iterations =  2.0


     -----------------------------------------------
     Non-local corr. energy    =       1.86376034 Ry
     -----------------------------------------------


     total cpu time spent up to now is      445.1 secs

     total energy              =    -940.19422242 Ry
     estimated scf accuracy    <       0.00000499 Ry

     total magnetization       =    -4.00 Bohr mag/cell
     absolute magnetization    =     4.14 Bohr mag/cell

     iteration # 28     ecut=   200.00 Ry     beta= 0.70
     Davidson diagonalization with overlap

---- Real-time Memory Report at c_bands before calling an iterative solver
           386 MiB given to the printing process from OS
           338 MiB allocation reported by mallinfo(arena+hblkhd)
        153100 MiB available memory on the node where the printing process lives
------------------
     ethr =  4.99E-09,  avg # of iterations =  2.0


     -----------------------------------------------
     Non-local corr. energy    =       1.86374717 Ry
     -----------------------------------------------


     total cpu time spent up to now is      458.9 secs

     total energy              =    -940.19422537 Ry
     estimated scf accuracy    <       0.00000122 Ry

     total magnetization       =    -4.00 Bohr mag/cell
     absolute magnetization    =     4.15 Bohr mag/cell

     iteration # 29     ecut=   200.00 Ry     beta= 0.70
     Davidson diagonalization with overlap

---- Real-time Memory Report at c_bands before calling an iterative solver
           386 MiB given to the printing process from OS
           338 MiB allocation reported by mallinfo(arena+hblkhd)
        153100 MiB available memory on the node where the printing process lives
------------------
     ethr =  1.22E-09,  avg # of iterations =  2.0


     -----------------------------------------------
     Non-local corr. energy    =       1.86374456 Ry
     -----------------------------------------------


     total cpu time spent up to now is      473.9 secs

     total energy              =    -940.19422612 Ry
     estimated scf accuracy    <       0.00000132 Ry

     total magnetization       =    -4.00 Bohr mag/cell
     absolute magnetization    =     4.15 Bohr mag/cell

     iteration # 30     ecut=   200.00 Ry     beta= 0.70
     Davidson diagonalization with overlap

---- Real-time Memory Report at c_bands before calling an iterative solver
           386 MiB given to the printing process from OS
           338 MiB allocation reported by mallinfo(arena+hblkhd)
        153100 MiB available memory on the node where the printing process lives
------------------
     ethr =  1.22E-09,  avg # of iterations =  2.0


     -----------------------------------------------
     Non-local corr. energy    =       1.86375498 Ry
     -----------------------------------------------


     Magnetic moment per site  (integrated on atomic sphere of radius R)
     atom   1 (R=1.555)  charge= 15.8964  magn= -1.5734
     atom   2 (R=1.555)  charge= 15.8958  magn= -1.5738
     atom   3 (R=0.983)  charge=  1.4870  magn=  0.0033
     atom   4 (R=0.983)  charge=  1.4869  magn=  0.0033
     atom   5 (R=0.983)  charge=  1.4870  magn=  0.0033
     atom   6 (R=0.983)  charge=  1.4870  magn=  0.0033
     atom   7 (R=0.983)  charge=  3.8047  magn= -0.0908
     atom   8 (R=0.983)  charge=  3.8049  magn= -0.0908
     atom   9 (R=0.983)  charge=  3.8050  magn= -0.0908
     atom  10 (R=0.983)  charge=  3.8051  magn= -0.0907
     atom  11 (R=0.983)  charge=  3.8144  magn= -0.0621
     atom  12 (R=0.983)  charge=  3.8144  magn= -0.0622
     atom  13 (R=0.983)  charge=  3.8146  magn= -0.0621
     atom  14 (R=0.983)  charge=  3.8145  magn= -0.0622

     total cpu time spent up to now is      487.1 secs

     End of self-consistent calculation

 ------ SPIN UP ------------


          k = 0.0260 0.0247-0.0397 ( 69918 PWs)   bands (ev):

  -101.3848-101.3817 -61.5893 -61.5865 -61.5712 -61.5685 -61.4680 -61.4654
   -17.8250 -17.7244 -17.3487 -17.3387 -16.3861 -16.3396 -16.1444 -16.1315
    -8.5101  -8.2691  -5.8696  -5.8314  -4.2189  -4.1817  -3.8427  -3.8058
    -3.3868  -3.2980  -2.6495  -2.4860  -1.7762  -1.4384  -1.1326  -0.9936
    -0.7680  -0.7274  -0.4387  -0.3623  -0.2150  -0.1458  -0.0663   0.0571
     0.1635   0.2275   0.3649   0.4512   0.5296   0.6028   0.6264   0.6888
     1.6381   1.8676   2.1010   2.2300   3.5820   3.7826   5.5899   5.6329
     5.8514   6.1066   6.7816   7.0100   8.9255   9.1698   9.5944   9.8418
     9.9492

     occupation numbers 
     1.0000   1.0000   1.0000   1.0000   1.0000   1.0000   1.0000   1.0000
     1.0000   1.0000   1.0000   1.0000   1.0000   1.0000   1.0000   1.0000
     1.0000   1.0000   1.0000   1.0000   1.0000   1.0000   1.0000   1.0000
     1.0000   1.0000   1.0000   1.0000   1.0000   1.0000   1.0000   1.0000
     1.0000   1.0000   1.0000   1.0000   1.0000   1.0000   1.0000   1.0000
     1.0000   1.0000   1.0000   1.0000   1.0000   1.0000   1.0000   1.0000
     0.0000   0.0000   0.0000   0.0000   0.0000   0.0000   0.0000   0.0000
     0.0000   0.0000   0.0000   0.0000   0.0000   0.0000   0.0000   0.0000
     0.0000

          k = 0.0260 0.0247 0.0110 ( 69903 PWs)   bands (ev):

  -101.3848-101.3817 -61.5893 -61.5865 -61.5712 -61.5685 -61.4680 -61.4654
   -17.8468 -17.7073 -17.3499 -17.3344 -16.3679 -16.3518 -16.1427 -16.1349
    -8.4841  -8.3013  -5.8779  -5.8327  -4.2286  -4.1675  -3.8918  -3.7710
    -3.3541  -3.2976  -2.7038  -2.5246  -1.8651  -1.3627  -1.0843  -1.0260
    -0.7788  -0.6965  -0.3135  -0.2821  -0.2417  -0.1484  -0.0209   0.0304
     0.1123   0.2121   0.3874   0.4538   0.5532   0.5675   0.6219   0.6874
     1.6067   1.9209   2.0991   2.2311   3.5878   3.7385   5.3204   5.6998
     5.8280   6.2385   6.7748   7.0383   8.8970   9.1966   9.5359   9.7285
    10.0096

     occupation numbers 
     1.0000   1.0000   1.0000   1.0000   1.0000   1.0000   1.0000   1.0000
     1.0000   1.0000   1.0000   1.0000   1.0000   1.0000   1.0000   1.0000
     1.0000   1.0000   1.0000   1.0000   1.0000   1.0000   1.0000   1.0000
     1.0000   1.0000   1.0000   1.0000   1.0000   1.0000   1.0000   1.0000
     1.0000   1.0000   1.0000   1.0000   1.0000   1.0000   1.0000   1.0000
     1.0000   1.0000   1.0000   1.0000   1.0000   1.0000   1.0000   1.0000
     0.0000   0.0000   0.0000   0.0000   0.0000   0.0000   0.0000   0.0000
     0.0000   0.0000   0.0000   0.0000   0.0000   0.0000   0.0000   0.0000
     0.0000

          k =-0.0260 0.0247-0.0397 ( 69918 PWs)   bands (ev):

  -101.3848-101.3817 -61.5893 -61.5865 -61.5712 -61.5685 -61.4680 -61.4654
   -17.8250 -17.7245 -17.3486 -17.3388 -16.3861 -16.3396 -16.1444 -16.1315
    -8.5101  -8.2691  -5.8696  -5.8315  -4.2188  -4.1818  -3.8427  -3.8059
    -3.3868  -3.2980  -2.6496  -2.4859  -1.7762  -1.4384  -1.1326  -0.9939
    -0.7673  -0.7278  -0.4387  -0.3624  -0.2150  -0.1453  -0.0667   0.0572
     0.1637   0.2271   0.3659   0.4501   0.5297   0.6025   0.6268   0.6887
     1.6379   1.8682   2.1004   2.2304   3.5819   3.7826   5.5900   5.6329
     5.8515   6.1065   6.7815   7.0101   8.9256   9.1698   9.5942   9.8417
     9.9492

     occupation numbers 
     1.0000   1.0000   1.0000   1.0000   1.0000   1.0000   1.0000   1.0000
     1.0000   1.0000   1.0000   1.0000   1.0000   1.0000   1.0000   1.0000
     1.0000   1.0000   1.0000   1.0000   1.0000   1.0000   1.0000   1.0000
     1.0000   1.0000   1.0000   1.0000   1.0000   1.0000   1.0000   1.0000
     1.0000   1.0000   1.0000   1.0000   1.0000   1.0000   1.0000   1.0000
     1.0000   1.0000   1.0000   1.0000   1.0000   1.0000   1.0000   1.0000
     0.0000   0.0000   0.0000   0.0000   0.0000   0.0000   0.0000   0.0000
     0.0000   0.0000   0.0000   0.0000   0.0000   0.0000   0.0000   0.0000
     0.0000

          k =-0.0260 0.0247 0.0110 ( 69903 PWs)   bands (ev):

  -101.3848-101.3817 -61.5893 -61.5865 -61.5712 -61.5685 -61.4680 -61.4654
   -17.8469 -17.7073 -17.3500 -17.3343 -16.3679 -16.3519 -16.1427 -16.1349
    -8.4841  -8.3013  -5.8779  -5.8327  -4.2286  -4.1675  -3.8918  -3.7710
    -3.3541  -3.2975  -2.7038  -2.5246  -1.8653  -1.3626  -1.0841  -1.0261
    -0.7789  -0.6965  -0.3136  -0.2821  -0.2416  -0.1482  -0.0212   0.0305
     0.1114   0.2133   0.3881   0.4529   0.5530   0.5678   0.6211   0.6882
     1.6068   1.9203   2.0996   2.2310   3.5879   3.7384   5.3203   5.6999
     5.8280   6.2385   6.7748   7.0383   8.8970   9.1967   9.5360   9.7286
    10.0096

     occupation numbers 
     1.0000   1.0000   1.0000   1.0000   1.0000   1.0000   1.0000   1.0000
     1.0000   1.0000   1.0000   1.0000   1.0000   1.0000   1.0000   1.0000
     1.0000   1.0000   1.0000   1.0000   1.0000   1.0000   1.0000   1.0000
     1.0000   1.0000   1.0000   1.0000   1.0000   1.0000   1.0000   1.0000
     1.0000   1.0000   1.0000   1.0000   1.0000   1.0000   1.0000   1.0000
     1.0000   1.0000   1.0000   1.0000   1.0000   1.0000   1.0000   1.0000
     0.0000   0.0000   0.0000   0.0000   0.0000   0.0000   0.0000   0.0000
     0.0000   0.0000   0.0000   0.0000   0.0000   0.0000   0.0000   0.0000
     0.0000

 ------ SPIN DOWN ----------


          k = 0.0260 0.0247-0.0397 ( 69918 PWs)   bands (ev):

  -102.7028-102.6991 -63.4191 -63.4157 -63.3979 -63.3946 -63.1600 -63.1560
   -17.9502 -17.8526 -17.4873 -17.4782 -16.5454 -16.5019 -16.3110 -16.2963
    -8.5659  -8.3272  -5.9684  -5.9328  -4.3651  -4.3081  -3.9561  -3.9139
    -3.5043  -3.4366  -2.7536  -2.5634  -2.1006  -1.9259  -1.8667  -1.7322
    -1.6360  -1.4923  -1.2740  -0.8677  -0.8477  -0.8022  -0.7213  -0.6974
    -0.5497  -0.5408  -0.4562  -0.3676  -0.0219   0.0579   0.1296   0.1468
     0.1928   0.3343   0.5477   0.6670   3.5410   3.7478   5.3406   5.6257
     5.7717   5.9689   6.6901   6.8560   8.8260   9.0612   9.5052   9.7243
     9.8554

     occupation numbers 
     1.0000   1.0000   1.0000   1.0000   1.0000   1.0000   1.0000   1.0000
     1.0000   1.0000   1.0000   1.0000   1.0000   1.0000   1.0000   1.0000
     1.0000   1.0000   1.0000   1.0000   1.0000   1.0000   1.0000   1.0000
     1.0000   1.0000   1.0000   1.0000   1.0000   1.0000   1.0000   1.0000
     1.0000   1.0000   1.0000   1.0000   1.0000   1.0000   1.0000   1.0000
     1.0000   1.0000   1.0000   1.0000   1.0000   1.0000   1.0000   1.0000
     1.0000   1.0000   1.0000   1.0000   0.0000   0.0000   0.0000   0.0000
     0.0000   0.0000   0.0000   0.0000   0.0000   0.0000   0.0000   0.0000
     0.0000

          k = 0.0260 0.0247 0.0110 ( 69903 PWs)   bands (ev):

  -102.7028-102.6991 -63.4191 -63.4157 -63.3979 -63.3946 -63.1600 -63.1560
   -17.9721 -17.8354 -17.4890 -17.4733 -16.5292 -16.5122 -16.3077 -16.3014
    -8.5412  -8.3582  -5.9772  -5.9335  -4.3571  -4.3156  -3.9922  -3.8842
    -3.4796  -3.4346  -2.7802  -2.5878  -2.1435  -2.0263  -1.9224  -1.7217
    -1.6422  -1.4172  -1.1578  -0.9107  -0.7943  -0.7643  -0.6926  -0.6657
    -0.5542  -0.5045  -0.4535  -0.3490  -0.0894   0.0498   0.1080   0.1584
     0.2718   0.3762   0.5033   0.6457   3.5511   3.7053   5.0889   5.6947
     5.8212   6.0322   6.6867   6.8663   8.7964   9.0773   9.4472   9.6350
     9.8774

     occupation numbers 
     1.0000   1.0000   1.0000   1.0000   1.0000   1.0000   1.0000   1.0000
     1.0000   1.0000   1.0000   1.0000   1.0000   1.0000   1.0000   1.0000
     1.0000   1.0000   1.0000   1.0000   1.0000   1.0000   1.0000   1.0000
     1.0000   1.0000   1.0000   1.0000   1.0000   1.0000   1.0000   1.0000
     1.0000   1.0000   1.0000   1.0000   1.0000   1.0000   1.0000   1.0000
     1.0000   1.0000   1.0000   1.0000   1.0000   1.0000   1.0000   1.0000
     1.0000   1.0000   1.0000   1.0000   0.0000   0.0000   0.0000   0.0000
     0.0000   0.0000   0.0000   0.0000   0.0000   0.0000   0.0000   0.0000
     0.0000

          k =-0.0260 0.0247-0.0397 ( 69918 PWs)   bands (ev):

  -102.7028-102.6991 -63.4191 -63.4157 -63.3979 -63.3946 -63.1600 -63.1560
   -17.9502 -17.8526 -17.4874 -17.4781 -16.5454 -16.5019 -16.3110 -16.2963
    -8.5659  -8.3273  -5.9684  -5.9328  -4.3651  -4.3081  -3.9561  -3.9139
    -3.5044  -3.4366  -2.7536  -2.5634  -2.1003  -1.9275  -1.8663  -1.7309
    -1.6368  -1.4921  -1.2738  -0.8674  -0.8478  -0.8025  -0.7222  -0.6973
    -0.5492  -0.5410  -0.4558  -0.3674  -0.0219   0.0578   0.1296   0.1465
     0.1930   0.3343   0.5475   0.6673   3.5409   3.7478   5.3407   5.6257
     5.7716   5.9688   6.6901   6.8562   8.8260   9.0612   9.5050   9.7242
     9.8556

     occupation numbers 
     1.0000   1.0000   1.0000   1.0000   1.0000   1.0000   1.0000   1.0000
     1.0000   1.0000   1.0000   1.0000   1.0000   1.0000   1.0000   1.0000
     1.0000   1.0000   1.0000   1.0000   1.0000   1.0000   1.0000   1.0000
     1.0000   1.0000   1.0000   1.0000   1.0000   1.0000   1.0000   1.0000
     1.0000   1.0000   1.0000   1.0000   1.0000   1.0000   1.0000   1.0000
     1.0000   1.0000   1.0000   1.0000   1.0000   1.0000   1.0000   1.0000
     1.0000   1.0000   1.0000   1.0000   0.0000   0.0000   0.0000   0.0000
     0.0000   0.0000   0.0000   0.0000   0.0000   0.0000   0.0000   0.0000
     0.0000

          k =-0.0260 0.0247 0.0110 ( 69903 PWs)   bands (ev):

  -102.7028-102.6991 -63.4191 -63.4157 -63.3979 -63.3946 -63.1600 -63.1560
   -17.9721 -17.8354 -17.4889 -17.4734 -16.5292 -16.5123 -16.3077 -16.3014
    -8.5412  -8.3581  -5.9772  -5.9335  -4.3572  -4.3156  -3.9922  -3.8842
    -3.4795  -3.4347  -2.7802  -2.5878  -2.1440  -2.0250  -1.9237  -1.7205
    -1.6431  -1.4172  -1.1577  -0.9112  -0.7945  -0.7637  -0.6925  -0.6654
    -0.5547  -0.5059  -0.4522  -0.3487  -0.0891   0.0496   0.1080   0.1581
     0.2719   0.3763   0.5030   0.6458   3.5511   3.7053   5.0889   5.6947
     5.8211   6.0323   6.6867   6.8662   8.7964   9.0773   9.4473   9.6351
     9.8773

     occupation numbers 
     1.0000   1.0000   1.0000   1.0000   1.0000   1.0000   1.0000   1.0000
     1.0000   1.0000   1.0000   1.0000   1.0000   1.0000   1.0000   1.0000
     1.0000   1.0000   1.0000   1.0000   1.0000   1.0000   1.0000   1.0000
     1.0000   1.0000   1.0000   1.0000   1.0000   1.0000   1.0000   1.0000
     1.0000   1.0000   1.0000   1.0000   1.0000   1.0000   1.0000   1.0000
     1.0000   1.0000   1.0000   1.0000   1.0000   1.0000   1.0000   1.0000
     1.0000   1.0000   1.0000   1.0000   0.0000   0.0000   0.0000   0.0000
     0.0000   0.0000   0.0000   0.0000   0.0000   0.0000   0.0000   0.0000
     0.0000

     the Fermi energy is     1.1584 ev

!    total energy              =    -940.19422629 Ry
     estimated scf accuracy    <       0.00000074 Ry
     smearing contrib. (-TS)   =      -0.00000000 Ry
     internal energy E=F+TS    =    -940.19422629 Ry

     The total energy is F=E-TS. E is the sum of the following terms:
     one-electron contribution =    -693.97495773 Ry
     hartree contribution      =     375.80771789 Ry
     xc contribution           =    -159.29760635 Ry
     ewald contribution        =    -462.72938010 Ry

     total magnetization       =    -4.00 Bohr mag/cell
     absolute magnetization    =     4.15 Bohr mag/cell

     convergence has been achieved in  30 iterations


     -----------------------------------------------
     Non-local corr. energy    =       1.86375498 Ry
     -----------------------------------------------


     Forces acting on atoms (cartesian axes, Ry/au):

     atom    1 type  1   force =     0.00000649   -0.00003696   -0.00002868
     atom    2 type  1   force =     0.00000884    0.00002487    0.00003752
     atom    3 type  2   force =     0.08290991    0.02892873    0.06126553
     atom    4 type  2   force =     0.08292601   -0.02895644   -0.06128172
     atom    5 type  2   force =    -0.08290892   -0.02888158   -0.06127401
     atom    6 type  2   force =    -0.08293397    0.02892830    0.06128287
     atom    7 type  3   force =     0.08670562   -0.19100510    0.08776715
     atom    8 type  3   force =     0.08671355    0.19101466   -0.08777164
     atom    9 type  3   force =    -0.08671920    0.19101766   -0.08778005
     atom   10 type  3   force =    -0.08672327   -0.19103896    0.08777779
     atom   11 type  3   force =    -0.11611521   -0.20654570   -0.05654428
     atom   12 type  3   force =    -0.11612175    0.20656877    0.05654847
     atom   13 type  3   force =     0.11612953    0.20654448    0.05655144
     atom   14 type  3   force =     0.11612237   -0.20656272   -0.05655039
     The non-local contrib.  to forces
     atom    1 type  1   force =     0.00000647    0.00000213    0.00001643
     atom    2 type  1   force =    -0.00000266   -0.00002250   -0.00000407
     atom    3 type  2   force =     0.20565313    0.01091644    0.15039904
     atom    4 type  2   force =     0.20565691   -0.01087275   -0.15041055
     atom    5 type  2   force =    -0.20563750   -0.01101686   -0.15038306
     atom    6 type  2   force =    -0.20565190    0.01092979    0.15039618
     atom    7 type  3   force =     0.62208243   -1.34658626    0.61874701
     atom    8 type  3   force =     0.62196597    1.34665246   -0.61863569
     atom    9 type  3   force =    -0.62209083    1.34657244   -0.61875536
     atom   10 type  3   force =    -0.62196823   -1.34664601    0.61864202
     atom   11 type  3   force =    -0.98139379   -1.35477476   -0.50342825
     atom   12 type  3   force =    -0.98132028    1.35483122    0.50338975
     atom   13 type  3   force =     0.98139298    1.35477851    0.50342604
     atom   14 type  3   force =     0.98132246   -1.35482488   -0.50338746
     The ionic contribution  to forces
     atom    1 type  1   force =    -0.00000000    0.00000000   -0.00000000
     atom    2 type  1   force =     0.00000000    0.00000000    0.00000000
     atom    3 type  2   force =    -0.84070181   -0.11738374   -0.75104867
     atom    4 type  2   force =    -0.84070181    0.11738374    0.75104867
     atom    5 type  2   force =     0.84070181    0.11738374    0.75104867
     atom    6 type  2   force =     0.84070181   -0.11738374   -0.75104867
     atom    7 type  3   force =    -2.37077980    1.40094746   -1.64838135
     atom    8 type  3   force =    -2.37077980   -1.40094746    1.64838135
     atom    9 type  3   force =     2.37077980   -1.40094746    1.64838135
     atom   10 type  3   force =     2.37077980    1.40094746   -1.64838135
     atom   11 type  3   force =     6.16210269    0.96257041    2.94633807
     atom   12 type  3   force =     6.16210269   -0.96257041   -2.94633807
     atom   13 type  3   force =    -6.16210269   -0.96257041   -2.94633807
     atom   14 type  3   force =    -6.16210269    0.96257041    2.94633807
     The local contribution  to forces
     atom    1 type  1   force =    -0.00010533    0.00051626    0.00022952
     atom    2 type  1   force =    -0.00014696   -0.00035440   -0.00031087
     atom    3 type  2   force =     0.72533479    0.13469558    0.66731850
     atom    4 type  2   force =     0.72550427   -0.13468507   -0.66741524
     atom    5 type  2   force =    -0.72533194   -0.13504147   -0.66729689
     atom    6 type  2   force =    -0.72546916    0.13488691    0.66744769
     atom    7 type  3   force =     1.85816016   -0.29457147    1.14007631
     atom    8 type  3   force =     1.85789445    0.29457258   -1.13976678
     atom    9 type  3   force =    -1.85812943    0.29436693   -1.14005391
     atom   10 type  3   force =    -1.85787534   -0.29439892    1.13976147
     atom   11 type  3   force =    -5.33343565    0.13754725   -2.51848836
     atom   12 type  3   force =    -5.33320894   -0.13729445    2.51835054
     atom   13 type  3   force =     5.33344164   -0.13760325    2.51856957
     atom   14 type  3   force =     5.33322139    0.13730550   -2.51840498
     The core correction contribution to forces
     atom    1 type  1   force =    -0.00000032    0.00000044   -0.00000015
     atom    2 type  1   force =    -0.00000027    0.00000023   -0.00000022
     atom    3 type  2   force =    -0.00739102    0.00069618   -0.00543113
     atom    4 type  2   force =    -0.00739112   -0.00069937    0.00543185
     atom    5 type  2   force =     0.00739023   -0.00068919    0.00543010
     atom    6 type  2   force =     0.00739081    0.00069522   -0.00543067
     atom    7 type  3   force =    -0.02254389    0.04904562   -0.02243717
     atom    8 type  3   force =    -0.02253732   -0.04904801    0.02243080
     atom    9 type  3   force =     0.02254334   -0.04904327    0.02243675
     atom   10 type  3   force =     0.02253655    0.04904634   -0.02243027
     atom   11 type  3   force =     0.03650631    0.04824703    0.01901269
     atom   12 type  3   force =     0.03650283   -0.04824883   -0.01901099
     atom   13 type  3   force =    -0.03650495   -0.04824576   -0.01901157
     atom   14 type  3   force =    -0.03650233    0.04824820    0.01901036
     The Hubbard contrib.    to forces
     atom    1 type  1   force =     0.00000000    0.00000000    0.00000000
     atom    2 type  1   force =     0.00000000    0.00000000    0.00000000
     atom    3 type  2   force =     0.00000000    0.00000000    0.00000000
     atom    4 type  2   force =     0.00000000    0.00000000    0.00000000
     atom    5 type  2   force =     0.00000000    0.00000000    0.00000000
     atom    6 type  2   force =     0.00000000    0.00000000    0.00000000
     atom    7 type  3   force =     0.00000000    0.00000000    0.00000000
     atom    8 type  3   force =     0.00000000    0.00000000    0.00000000
     atom    9 type  3   force =     0.00000000    0.00000000    0.00000000
     atom   10 type  3   force =     0.00000000    0.00000000    0.00000000
     atom   11 type  3   force =     0.00000000    0.00000000    0.00000000
     atom   12 type  3   force =     0.00000000    0.00000000    0.00000000
     atom   13 type  3   force =     0.00000000    0.00000000    0.00000000
     atom   14 type  3   force =     0.00000000    0.00000000    0.00000000
     The SCF correction term to forces
     atom    1 type  1   force =     0.00010601   -0.00055461   -0.00027259
     atom    2 type  1   force =     0.00015907    0.00040273    0.00035456
     atom    3 type  2   force =     0.00001518    0.00000546    0.00002967
     atom    4 type  2   force =    -0.00014189   -0.00008180    0.00006543
     atom    5 type  2   force =    -0.00003118    0.00048338   -0.00007095
     atom    6 type  2   force =     0.00009481   -0.00019869   -0.00007978
     atom    7 type  3   force =    -0.00021293    0.00016075   -0.00023578
     atom    8 type  3   force =     0.00017059   -0.00021372   -0.00017944
     atom    9 type  3   force =     0.00017826    0.00007022    0.00021300
     atom   10 type  3   force =    -0.00019571    0.00001335    0.00018781
     atom   11 type  3   force =     0.00010556   -0.00013444    0.00002345
     atom   12 type  3   force =    -0.00019771   -0.00014758    0.00015912
     atom   13 type  3   force =    -0.00009709    0.00018658   -0.00009266
     atom   14 type  3   force =     0.00018388    0.00013923   -0.00010448

     Total force =     0.700076     Total SCF correction =     0.001287


     Computing stress (Cartesian axis) and pressure



     -----------------------------------------------
     Non-local corr. energy    =       1.86375498 Ry
     -----------------------------------------------

          total   stress  (Ry/bohr**3)                   (kbar)     P=     -298.45
  -0.00133037   0.00000005   0.00000007         -195.70        0.01        0.01
   0.00000005  -0.00383361   0.00032307            0.01     -563.94       47.53
   0.00000007   0.00032307  -0.00092253            0.01       47.53     -135.71

     kinetic stress (kbar)  31261.31      0.03     -0.02
                                0.03  29594.59    143.76
                               -0.02    143.76  31307.36

     local   stress (kbar) -12510.80      0.02      0.13
                                0.02 -35877.06   1820.01
                                0.13   1820.01 -10094.43

     nonloc. stress (kbar)  -4044.46      0.00     -0.00
                                0.00  -3685.52    -29.66
                               -0.00    -29.66  -4023.30

     hartree stress (kbar)   9898.10     -0.04     -0.11
                               -0.04  18752.59   -603.67
                               -0.11   -603.67   9114.82

     exc-cor stress (kbar)  -1809.93      0.00     -0.00
                                0.00  -1754.07     -7.87
                               -0.00     -7.87  -1825.71

     corecor stress (kbar)  -2967.37      0.00      0.00
                                0.00  -2953.66     -1.04
                                0.00     -1.04  -2964.61

     ewald   stress (kbar) -20089.76     -0.00     -0.00
                               -0.00  -4690.46  -1275.95
                               -0.00  -1275.95 -21720.19

     hubbard stress (kbar)      0.00      0.00      0.00
                                0.00      0.00      0.00
                                0.00      0.00      0.00

     DFT-D   stress (kbar)      0.00      0.00      0.00
                                0.00      0.00      0.00
                                0.00      0.00      0.00

     XDM     stress (kbar)      0.00      0.00      0.00
                                0.00      0.00      0.00
                                0.00      0.00      0.00

     dft-nl  stress (kbar)     67.20     -0.00      0.00
                               -0.00     49.65      1.94
                                0.00      1.94     70.35

     TS-vdW  stress (kbar)      0.00      0.00      0.00
                                0.00      0.00      0.00
                                0.00      0.00      0.00


                                0.00      0.00      0.00
                                0.00      0.00      0.00


                                0.00      0.00      0.00


     Writing all to output data dir ./calc.save/

     init_run     :     44.09s CPU     44.48s WALL (       1 calls)
     electrons    :    427.36s CPU    442.65s WALL (       1 calls)
     forces       :     19.83s CPU     20.07s WALL (       1 calls)
     stress       :     53.06s CPU     53.63s WALL (       1 calls)

     Called by init_run:
     wfcinit      :      4.38s CPU      4.54s WALL (       1 calls)
     wfcinit:wfcr :      3.83s CPU      3.99s WALL (       8 calls)
     potinit      :     22.36s CPU     22.51s WALL (       1 calls)
     hinit0       :     17.18s CPU     17.25s WALL (       1 calls)

     Called by electrons:
     c_bands      :    333.34s CPU    345.11s WALL (      30 calls)
     sum_band     :     53.11s CPU     55.21s WALL (      30 calls)
     v_of_rho     :     52.67s CPU     54.12s WALL (      31 calls)
     v_h          :      0.22s CPU      0.23s WALL (      31 calls)
     v_xc         :     55.00s CPU     56.55s WALL (      33 calls)
     mix_rho      :      1.84s CPU      1.88s WALL (      30 calls)
     vdW_kernel   :     12.57s CPU     12.61s WALL (       1 calls)

     Called by c_bands:
     init_us_2    :      4.57s CPU      4.60s WALL (     504 calls)
     init_us_2:cp :      4.57s CPU      4.60s WALL (     504 calls)
     cegterg      :    315.45s CPU    327.15s WALL (     240 calls)

     Called by sum_band:
     sum_band:wei :      0.01s CPU      0.01s WALL (      30 calls)
     sum_band:loo :     52.39s CPU     54.43s WALL (      30 calls)
     sum_band:buf :      0.59s CPU      0.60s WALL (     240 calls)
     sum_band:ini :      2.17s CPU      2.18s WALL (     240 calls)

     Called by *egterg:
     cdiaghg      :      3.52s CPU      3.60s WALL (     957 calls)
     cegterg:over :     14.99s CPU     15.08s WALL (     717 calls)
     cegterg:upda :     11.13s CPU     11.18s WALL (     717 calls)
     cegterg:last :     15.82s CPU     15.90s WALL (     515 calls)
     cdiaghg:chol :      0.22s CPU      0.23s WALL (     957 calls)
     cdiaghg:inve :      0.06s CPU      0.06s WALL (     957 calls)
     cdiaghg:para :      0.48s CPU      0.52s WALL (    1914 calls)
     h_psi        :    266.12s CPU    277.64s WALL (     965 calls)
     g_psi        :      1.49s CPU      1.50s WALL (     717 calls)

     Called by h_psi:
     h_psi:calbec :     16.51s CPU     16.68s WALL (     965 calls)
     vloc_psi     :    232.11s CPU    243.36s WALL (     965 calls)
     add_vuspsi   :     16.03s CPU     16.12s WALL (     965 calls)

     General routines
     calbec       :     17.55s CPU     17.74s WALL (    1005 calls)
     fft          :     14.03s CPU     15.45s WALL (    2793 calls)
     ffts         :      0.29s CPU      0.31s WALL (      60 calls)
     fftw         :    245.38s CPU    256.60s WALL (   94280 calls)

     Parallel routines

     PWSCF        :   9m 4.64s CPU   9m21.82s WALL


   This run was terminated on:  11:57:12  21Sep2022            

=------------------------------------------------------------------------------=
   JOB DONE.
=------------------------------------------------------------------------------=
