
     Program PWSCF v.7.0 starts on 21Sep2022 at 11:40: 0 

     This program is part of the open-source Quantum ESPRESSO suite
     for quantum simulation of materials; please cite
         "P. Giannozzi et al., J. Phys.:Condens. Matter 21 395502 (2009);
         "P. Giannozzi et al., J. Phys.:Condens. Matter 29 465901 (2017);
         "P. Giannozzi et al., J. Chem. Phys. 152 154105 (2020);
          URL http://www.quantum-espresso.org", 
     in publications or presentations arising from this work. More details at
     http://www.quantum-espresso.org/quote

     Parallel version (MPI), running on     8 processors

     MPI processes distributed on     1 nodes
     R & G space division:  proc/nbgrp/npool/nimage =       8
     155800 MiB available memory on the printing compute node when the environment starts

     Reading input from pw.inp

     Current dimensions of program PWSCF are:
     Max number of different atomic species (ntypx) = 10
     Max number of k-points (npk) =  40000
     Max angular momentum in pseudopotentials (lmaxx) =  4
     Message from routine volume:
     strange lattice parameter
     Message from routine cell_base_init:
     DEPRECATED: use true lattice parameter, not A to a.u. conversion factor

     IMPORTANT: XC functional enforced from input :
     Exchange-correlation= VDW-DF
                           (   1   4   4   0   1   0   0)
     Any further DFT definition will be discarded
     Please, verify this is what you really want


     Subspace diagonalization in iterative solution of the eigenvalue problem:
     one sub-group per band group will be used
     scalapack distributed-memory algorithm (size of sub-group:  2*  2 procs)


     Parallelization info
     --------------------
     sticks:   dense  smooth     PW     G-vecs:    dense   smooth      PW
     Min         626     626    165                33512    33512    4525
     Max         628     628    166                33513    33513    4526
     Sum        5015    5015   1321               268103   268103   36201

     Using Slab Decomposition



     bravais-lattice index     =            0
     lattice parameter (alat)  =       0.9000  a.u.
     unit-cell volume          =     701.6684 (a.u.)^3
     number of atoms/cell      =           14
     number of atomic types    =            3
     number of electrons       =       100.00
     number of Kohn-Sham states=           65
     kinetic-energy cutoff     =     200.0000  Ry
     charge density cutoff     =     800.0000  Ry
     scf convergence threshold =      1.0E-06
     mixing beta               =       0.7000
     number of iterations used =            8  plain     mixing
     Exchange-correlation= VDW-DF
                           (   1   4   4   0   1   0   0)

     celldm(1)=   0.900000  celldm(2)=   0.000000  celldm(3)=   0.000000
     celldm(4)=   0.000000  celldm(5)=   0.000000  celldm(6)=   0.000000

     crystal axes: (cart. coord. in units of alat)
               a(1) = (   0.000000  10.137047   0.000000 )  
               a(2) = (   9.612603   0.000000   0.000000 )  
               a(3) = (   0.000000  -5.745581  -9.877611 )  

     reciprocal axes: (cart. coord. in units 2 pi/alat)
               b(1) = (  0.000000  0.098648 -0.057381 )  
               b(2) = (  0.104030 -0.000000  0.000000 )  
               b(3) = (  0.000000  0.000000 -0.101239 )  


     PseudoPot. # 1 for Ni read from file:
     ./28_Ni_18_1.7_2.2_pbe_n_v1.0.upf
     MD5 check sum: 081853746d39b5abdc129692a5e93361
     Pseudo is Norm-conserving + core correction, Zval = 18.0
     Generated using ONCVPSP code by D. R. Hamann
     Using radial grid of 1370 points,  6 beta functions with: 
                l(1) =   0
                l(2) =   0
                l(3) =   1
                l(4) =   1
                l(5) =   2
                l(6) =   2

     PseudoPot. # 2 for C  read from file:
     ./06_C_4_1.2_1.2_pbe_n_v1.0.upf
     MD5 check sum: 7e0e17a2517474b8bea671dc4b65026c
     Pseudo is Norm-conserving + core correction, Zval =  4.0
     Generated using ONCVPSP code by D. R. Hamann
     Using radial grid of 1246 points,  4 beta functions with: 
                l(1) =   0
                l(2) =   0
                l(3) =   1
                l(4) =   1

     PseudoPot. # 3 for O  read from file:
     ./08_O_6_1.2_1.4_pbe_n_v1.0.upf
     MD5 check sum: a8b7f44dbbd6106bf79c6036dc5c6a43
     Pseudo is Norm-conserving + core correction, Zval =  6.0
     Generated using ONCVPSP code by D. R. Hamann
     Using radial grid of  934 points,  5 beta functions with: 
                l(1) =   0
                l(2) =   0
                l(3) =   1
                l(4) =   1
                l(5) =   2

     atomic species   valence    mass     pseudopotential
        Ni            18.00    59.00000     Ni( 1.00)
        C              4.00    12.00000     C ( 1.00)
        O              6.00    16.00000     O ( 1.00)

     Starting magnetic structure 
     atomic species   magnetization
        Ni           1.000
        C            0.000
        O            0.000

     No symmetry found


                                    s                        frac. trans.

      isym =  1     identity                                     

 cryst.   s( 1) = (     1          0          0      )
                  (     0          1          0      )
                  (     0          0          1      )

 cart.    s( 1) = (  1.0000000  0.0000000  0.0000000 )
                  (  0.0000000  1.0000000  0.0000000 )
                  (  0.0000000  0.0000000  1.0000000 )


   Cartesian axes

     site n.     atom                  positions (alat units)
         1           Ni  tau(   1) = (   4.8063017  -2.8727903  -4.9388055  )
         2           Ni  tau(   2) = (   0.0000000   0.0000000   0.0000000  )
         3           C   tau(   3) = (   5.9644954   2.2506991  -4.0580090  )
         4           C   tau(   4) = (   1.1581937   5.0135579  -0.8807964  )
         5           C   tau(   5) = (   3.6481079   2.1407676  -5.8196019  )
         6           C   tau(   6) = (   8.4544096  -0.6220912  -8.9968145  )
         7           O   tau(   7) = (   2.8122056   4.2227277  -6.7025319  )
         8           O   tau(   8) = (   7.6185072  -2.7040513  -8.1138845  )
         9           O   tau(   9) = (   6.8003978   0.1687390  -3.1750790  )
        10           O   tau(  10) = (   1.9940961   7.0955180  -1.7637265  )
        11           O   tau(  11) = (   6.8795095   4.4078477  -3.6179615  )
        12           O   tau(  12) = (   2.0732078   2.8564094  -1.3208440  )
        13           O   tau(  13) = (   2.7330938  -0.0163809  -6.2596495  )
        14           O   tau(  14) = (   7.5393955   1.5350574  -8.5567669  )

   Crystallographic axes

     site n.     atom                  positions (cryst. coord.)
         1           Ni  tau(   1) = (  0.0000000  0.5000000  0.5000000  )
         2           Ni  tau(   2) = (  0.0000000  0.0000000  0.0000000  )
         3           C   tau(   3) = (  0.4548810  0.6204870  0.4108290  )
         4           C   tau(   4) = (  0.5451190  0.1204870  0.0891710  )
         5           C   tau(   5) = (  0.5451190  0.3795130  0.5891710  )
         6           C   tau(   6) = (  0.4548810  0.8795130  0.9108290  )
         7           O   tau(   7) = (  0.8011640  0.2925540  0.6785580  )
         8           O   tau(   8) = (  0.1988360  0.7925540  0.8214420  )
         9           O   tau(   9) = (  0.1988360  0.7074460  0.3214420  )
        10           O   tau(  10) = (  0.8011640  0.2074460  0.1785580  )
        11           O   tau(  11) = (  0.6424290  0.7156760  0.3662790  )
        12           O   tau(  12) = (  0.3575710  0.2156760  0.1337210  )
        13           O   tau(  13) = (  0.3575710  0.2843240  0.6337210  )
        14           O   tau(  14) = (  0.6424290  0.7843240  0.8662790  )

     number of k points=     4  Fermi-Dirac smearing, width (Ry)=  0.0020
                       cart. coord. in units 2pi/alat
        k(    1) = (   0.0260075   0.0246620  -0.0396551), wk =   0.2500000
        k(    2) = (   0.0260075   0.0246620   0.0109644), wk =   0.2500000
        k(    3) = (  -0.0260075   0.0246620  -0.0396551), wk =   0.2500000
        k(    4) = (  -0.0260075   0.0246620   0.0109644), wk =   0.2500000

                       cryst. coord.
        k(    1) = (   0.2500000   0.2500000   0.2500000), wk =   0.2500000
        k(    2) = (   0.2500000   0.2500000  -0.2500000), wk =   0.2500000
        k(    3) = (   0.2500000  -0.2500000   0.2500000), wk =   0.2500000
        k(    4) = (   0.2500000  -0.2500000  -0.2500000), wk =   0.2500000

     Dense  grid:   268103 G-vectors     FFT dimensions: (  90,  80,  96)

     Dynamical RAM for                 wfc:       4.15 MB

     Dynamical RAM for     wfc (w. buffer):      37.39 MB

     Dynamical RAM for           str. fact:       1.53 MB

     Dynamical RAM for           local pot:       0.00 MB

     Dynamical RAM for          nlocal pot:      10.99 MB

     Dynamical RAM for                qrad:       6.81 MB

     Dynamical RAM for          rho,v,vnew:       7.02 MB

     Dynamical RAM for               rhoin:       2.34 MB

     Dynamical RAM for            rho*nmix:      16.36 MB

     Dynamical RAM for           G-vectors:       2.17 MB

     Dynamical RAM for          h,s,v(r/c):       0.19 MB

     Dynamical RAM for          <psi|beta>:       0.17 MB

     Dynamical RAM for                 psi:       8.31 MB

     Dynamical RAM for                hpsi:       8.31 MB

     Dynamical RAM for      wfcinit/wfcrot:       8.41 MB

     Estimated static dynamical RAM per process >      74.27 MB

     Estimated max dynamical RAM per process >     107.61 MB

     Estimated total dynamical RAM >     860.89 MB
     Generating pointlists ...
     new r_m :   1.5545 (alat units)  1.3991 (a.u.) for type    1
     new r_m :   0.9835 (alat units)  0.8851 (a.u.) for type    2
     new r_m :   0.9835 (alat units)  0.8851 (a.u.) for type    3

     Initial potential from superposition of free atoms

     starting charge      99.9993, renormalised to     100.0000


     %%%%%%%%%%%%%%%%%%%%%%%%%%%%%%%%%%%%%%%%%%%%%%%%%%%%%%%%%%%%%%%%%%%%%%%%
     %                                                                      %
     % You are using vdW-DF, which was implemented by the Thonhauser group. %
     % Please cite the following two papers that made this development      %
     % possible and the two reviews that describe the various versions:     %
     %                                                                      %
     %   T. Thonhauser et al., PRL 115, 136402 (2015).                      %
     %   T. Thonhauser et al., PRB 76, 125112 (2007).                       %
     %   K. Berland et al., Rep. Prog. Phys. 78, 066501 (2015).             %
     %   D.C. Langreth et al., J. Phys.: Condens. Matter 21, 084203 (2009). %
     %                                                                      %
     %                                                                      %
     % If you are calculating the stress with vdW-DF, please also cite:     %
     %                                                                      %
     %   R. Sabatini et al., J. Phys.: Condens. Matter 24, 424209 (2012).   %
     %                                                                      %
     %%%%%%%%%%%%%%%%%%%%%%%%%%%%%%%%%%%%%%%%%%%%%%%%%%%%%%%%%%%%%%%%%%%%%%%%


     Carrying out vdW-DF run using the following parameters:
     Nqs    =  20  Npoints =  1024  r_max =  100.000
     q_mesh =  0.00001000  0.04494208  0.09755937  0.15916263
               0.23128650  0.31572767  0.41458969  0.53033537
               0.66584808  0.82450364  1.01025438  1.22772762
               1.48234092  1.78043706  2.12944203  2.53805004
               3.01644009  3.57652955  4.23227104  5.00000000


     -----------------------------------------------
     Non-local corr. energy    =       1.30086238 Ry
     -----------------------------------------------

     Starting wfcs are random

     total cpu time spent up to now is       27.7 secs

     per-process dynamical memory:   122.2 Mb

     Self-consistent Calculation

     iteration #  1     ecut=   200.00 Ry     beta= 0.70
     Davidson diagonalization with overlap

---- Real-time Memory Report at c_bands before calling an iterative solver
           163 MiB given to the printing process from OS
           119 MiB allocation reported by mallinfo(arena+hblkhd)
        154844 MiB available memory on the node where the printing process lives
------------------
     ethr =  1.00E-02,  avg # of iterations = 12.6


     -----------------------------------------------
     Non-local corr. energy    =       1.52625239 Ry
     -----------------------------------------------


     total cpu time spent up to now is       49.8 secs

     total energy              =    -926.88689461 Ry
     estimated scf accuracy    <      22.70275364 Ry

     total magnetization       =     9.99 Bohr mag/cell
     absolute magnetization    =    10.28 Bohr mag/cell

     iteration #  2     ecut=   200.00 Ry     beta= 0.70
     Davidson diagonalization with overlap

---- Real-time Memory Report at c_bands before calling an iterative solver
           214 MiB given to the printing process from OS
           164 MiB allocation reported by mallinfo(arena+hblkhd)
        154479 MiB available memory on the node where the printing process lives
------------------
     ethr =  1.00E-02,  avg # of iterations =  4.1


     -----------------------------------------------
     Non-local corr. energy    =       1.53634429 Ry
     -----------------------------------------------


     total cpu time spent up to now is       59.1 secs

     total energy              =    -935.02244501 Ry
     estimated scf accuracy    <      59.46155781 Ry

     total magnetization       =     0.00 Bohr mag/cell
     absolute magnetization    =     1.74 Bohr mag/cell

     iteration #  3     ecut=   200.00 Ry     beta= 0.70
     Davidson diagonalization with overlap

---- Real-time Memory Report at c_bands before calling an iterative solver
           216 MiB given to the printing process from OS
           166 MiB allocation reported by mallinfo(arena+hblkhd)
        154462 MiB available memory on the node where the printing process lives
------------------
     ethr =  1.00E-02,  avg # of iterations =  2.2


     -----------------------------------------------
     Non-local corr. energy    =       1.59352722 Ry
     -----------------------------------------------


     total cpu time spent up to now is       66.1 secs

     total energy              =    -938.14679184 Ry
     estimated scf accuracy    <       7.46655843 Ry

     total magnetization       =     2.20 Bohr mag/cell
     absolute magnetization    =     2.40 Bohr mag/cell

     iteration #  4     ecut=   200.00 Ry     beta= 0.70
     Davidson diagonalization with overlap

---- Real-time Memory Report at c_bands before calling an iterative solver
           218 MiB given to the printing process from OS
           168 MiB allocation reported by mallinfo(arena+hblkhd)
        154444 MiB available memory on the node where the printing process lives
------------------
     ethr =  7.47E-03,  avg # of iterations =  2.6


     -----------------------------------------------
     Non-local corr. energy    =       1.58103629 Ry
     -----------------------------------------------


     total cpu time spent up to now is       72.5 secs

     total energy              =    -939.84342605 Ry
     estimated scf accuracy    <       4.16698996 Ry

     total magnetization       =     4.41 Bohr mag/cell
     absolute magnetization    =     5.10 Bohr mag/cell

     iteration #  5     ecut=   200.00 Ry     beta= 0.70
     Davidson diagonalization with overlap

---- Real-time Memory Report at c_bands before calling an iterative solver
           220 MiB given to the printing process from OS
           170 MiB allocation reported by mallinfo(arena+hblkhd)
        154423 MiB available memory on the node where the printing process lives
------------------
     ethr =  4.17E-03,  avg # of iterations =  1.8


     -----------------------------------------------
     Non-local corr. energy    =       1.57522628 Ry
     -----------------------------------------------


     total cpu time spent up to now is       78.2 secs

     total energy              =    -939.95955044 Ry
     estimated scf accuracy    <       0.72433536 Ry

     total magnetization       =     4.00 Bohr mag/cell
     absolute magnetization    =     4.21 Bohr mag/cell

     iteration #  6     ecut=   200.00 Ry     beta= 0.70
     Davidson diagonalization with overlap

---- Real-time Memory Report at c_bands before calling an iterative solver
           222 MiB given to the printing process from OS
           172 MiB allocation reported by mallinfo(arena+hblkhd)
        154412 MiB available memory on the node where the printing process lives
------------------
     ethr =  7.24E-04,  avg # of iterations =  2.0


     -----------------------------------------------
     Non-local corr. energy    =       1.57677240 Ry
     -----------------------------------------------


     total cpu time spent up to now is       84.3 secs

     total energy              =    -940.07333447 Ry
     estimated scf accuracy    <       0.08527220 Ry

     total magnetization       =     3.88 Bohr mag/cell
     absolute magnetization    =     3.97 Bohr mag/cell

     iteration #  7     ecut=   200.00 Ry     beta= 0.70
     Davidson diagonalization with overlap

---- Real-time Memory Report at c_bands before calling an iterative solver
           224 MiB given to the printing process from OS
           174 MiB allocation reported by mallinfo(arena+hblkhd)
        154395 MiB available memory on the node where the printing process lives
------------------
     ethr =  8.53E-05,  avg # of iterations =  7.0


     -----------------------------------------------
     Non-local corr. energy    =       1.57876658 Ry
     -----------------------------------------------


     total cpu time spent up to now is       91.6 secs

     total energy              =    -940.09606904 Ry
     estimated scf accuracy    <       0.04501970 Ry

     total magnetization       =     4.00 Bohr mag/cell
     absolute magnetization    =     4.08 Bohr mag/cell

     iteration #  8     ecut=   200.00 Ry     beta= 0.70
     Davidson diagonalization with overlap

---- Real-time Memory Report at c_bands before calling an iterative solver
           226 MiB given to the printing process from OS
           176 MiB allocation reported by mallinfo(arena+hblkhd)
        154374 MiB available memory on the node where the printing process lives
------------------
     ethr =  4.50E-05,  avg # of iterations =  2.0


     -----------------------------------------------
     Non-local corr. energy    =       1.58115786 Ry
     -----------------------------------------------


     total cpu time spent up to now is       97.5 secs

     total energy              =    -940.10173261 Ry
     estimated scf accuracy    <       0.00503056 Ry

     total magnetization       =     4.00 Bohr mag/cell
     absolute magnetization    =     4.10 Bohr mag/cell

     iteration #  9     ecut=   200.00 Ry     beta= 0.70
     Davidson diagonalization with overlap

---- Real-time Memory Report at c_bands before calling an iterative solver
           228 MiB given to the printing process from OS
           178 MiB allocation reported by mallinfo(arena+hblkhd)
        154361 MiB available memory on the node where the printing process lives
------------------
     ethr =  5.03E-06,  avg # of iterations =  8.9


     -----------------------------------------------
     Non-local corr. energy    =       1.58080304 Ry
     -----------------------------------------------


     total cpu time spent up to now is      105.3 secs

     total energy              =    -940.10287878 Ry
     estimated scf accuracy    <       0.00070054 Ry

     total magnetization       =     4.00 Bohr mag/cell
     absolute magnetization    =     4.11 Bohr mag/cell

     iteration # 10     ecut=   200.00 Ry     beta= 0.70
     Davidson diagonalization with overlap

---- Real-time Memory Report at c_bands before calling an iterative solver
           231 MiB given to the printing process from OS
           180 MiB allocation reported by mallinfo(arena+hblkhd)
        154341 MiB available memory on the node where the printing process lives
------------------
     ethr =  7.01E-07,  avg # of iterations =  2.0


     -----------------------------------------------
     Non-local corr. energy    =       1.58048269 Ry
     -----------------------------------------------


     total cpu time spent up to now is      111.3 secs

     total energy              =    -940.10295982 Ry
     estimated scf accuracy    <       0.00007780 Ry

     total magnetization       =     4.00 Bohr mag/cell
     absolute magnetization    =     4.11 Bohr mag/cell

     iteration # 11     ecut=   200.00 Ry     beta= 0.70
     Davidson diagonalization with overlap

---- Real-time Memory Report at c_bands before calling an iterative solver
           231 MiB given to the printing process from OS
           180 MiB allocation reported by mallinfo(arena+hblkhd)
        154339 MiB available memory on the node where the printing process lives
------------------
     ethr =  7.78E-08,  avg # of iterations =  2.0


     -----------------------------------------------
     Non-local corr. energy    =       1.58042838 Ry
     -----------------------------------------------


     total cpu time spent up to now is      118.1 secs

     total energy              =    -940.10297217 Ry
     estimated scf accuracy    <       0.00002445 Ry

     total magnetization       =     4.00 Bohr mag/cell
     absolute magnetization    =     4.11 Bohr mag/cell

     iteration # 12     ecut=   200.00 Ry     beta= 0.70
     Davidson diagonalization with overlap

---- Real-time Memory Report at c_bands before calling an iterative solver
           231 MiB given to the printing process from OS
           180 MiB allocation reported by mallinfo(arena+hblkhd)
        154339 MiB available memory on the node where the printing process lives
------------------
     ethr =  2.44E-08,  avg # of iterations =  2.0


     -----------------------------------------------
     Non-local corr. energy    =       1.58045298 Ry
     -----------------------------------------------


     total cpu time spent up to now is      124.2 secs

     total energy              =    -940.10297673 Ry
     estimated scf accuracy    <       0.00000137 Ry

     total magnetization       =     4.00 Bohr mag/cell
     absolute magnetization    =     4.11 Bohr mag/cell

     iteration # 13     ecut=   200.00 Ry     beta= 0.70
     Davidson diagonalization with overlap

---- Real-time Memory Report at c_bands before calling an iterative solver
           231 MiB given to the printing process from OS
           180 MiB allocation reported by mallinfo(arena+hblkhd)
        154339 MiB available memory on the node where the printing process lives
------------------
     ethr =  1.37E-09,  avg # of iterations =  2.0


     -----------------------------------------------
     Non-local corr. energy    =       1.58043486 Ry
     -----------------------------------------------


     Magnetic moment per site  (integrated on atomic sphere of radius R)
     atom   1 (R=1.555)  charge= 14.9115  magn=  1.4994
     atom   2 (R=1.555)  charge= 14.9114  magn=  1.4994
     atom   3 (R=0.983)  charge=  1.1059  magn=  0.0021
     atom   4 (R=0.983)  charge=  1.1059  magn=  0.0021
     atom   5 (R=0.983)  charge=  1.1059  magn=  0.0021
     atom   6 (R=0.983)  charge=  1.1059  magn=  0.0021
     atom   7 (R=0.983)  charge=  2.7716  magn=  0.0838
     atom   8 (R=0.983)  charge=  2.7713  magn=  0.0838
     atom   9 (R=0.983)  charge=  2.7716  magn=  0.0838
     atom  10 (R=0.983)  charge=  2.7713  magn=  0.0838
     atom  11 (R=0.983)  charge=  2.7919  magn=  0.0436
     atom  12 (R=0.983)  charge=  2.7920  magn=  0.0436
     atom  13 (R=0.983)  charge=  2.7919  magn=  0.0436
     atom  14 (R=0.983)  charge=  2.7920  magn=  0.0436

     total cpu time spent up to now is      130.9 secs

     End of self-consistent calculation

 ------ SPIN UP ------------


          k = 0.0260 0.0247-0.0397 ( 33534 PWs)   bands (ev):

   -92.6077 -92.6072 -53.5138 -53.5133 -53.3730 -53.3724 -53.2128 -53.2125
   -14.8768 -14.4551 -13.4178 -13.3331 -12.0051 -11.8311 -10.7811 -10.7248
    -2.6471  -1.9760   0.3335   0.6300   1.0352   1.0926   1.5788   1.9498
     2.4462   2.6647   3.1154   3.4206   3.5610   4.5039   5.0112   5.1989
     5.7707   6.0793   6.1208   6.3572   6.5310   6.9781   7.1583   7.6298
     7.8613   8.4234   9.3023   9.3878   9.5347   9.6236   9.8051  10.0396
    10.3770  10.7996  11.4315  11.6438  14.2567  14.7668  18.3935  19.1937
    20.4769  21.2961  21.7548  22.4094  23.1042  23.3073  24.0276  24.2168
    25.0405

     occupation numbers 
     1.0000   1.0000   1.0000   1.0000   1.0000   1.0000   1.0000   1.0000
     1.0000   1.0000   1.0000   1.0000   1.0000   1.0000   1.0000   1.0000
     1.0000   1.0000   1.0000   1.0000   1.0000   1.0000   1.0000   1.0000
     1.0000   1.0000   1.0000   1.0000   1.0000   1.0000   1.0000   1.0000
     1.0000   1.0000   1.0000   1.0000   1.0000   1.0000   1.0000   1.0000
     1.0000   1.0000   1.0000   1.0000   1.0000   1.0000   1.0000   1.0000
     1.0000   1.0000   1.0000   1.0000   0.0000   0.0000   0.0000   0.0000
     0.0000   0.0000   0.0000   0.0000   0.0000   0.0000   0.0000   0.0000
     0.0000

          k = 0.0260 0.0247 0.0110 ( 33514 PWs)   bands (ev):

   -92.6077 -92.6072 -53.5138 -53.5133 -53.3730 -53.3724 -53.2128 -53.2125
   -14.9629 -14.3935 -13.4197 -13.3139 -11.9308 -11.8595 -10.7689 -10.7455
    -2.6610  -1.9432   0.4036   0.6854   1.0222   1.1692   1.5544   1.8444
     2.1640   2.6714   2.8502   3.1315   3.4618   4.6554   5.0067   5.1581
     5.8374   6.0319   6.3128   6.6435   6.8155   7.0343   7.3955   7.4806
     7.9999   8.3384   9.2990   9.4970   9.5469   9.6989   9.8259   9.8827
    10.1021  11.0343  11.3698  11.6572  14.4602  14.7618  18.5937  18.8118
    19.7768  21.8518  21.8957  22.5620  22.8823  23.4462  23.8910  24.1419
    25.2189

     occupation numbers 
     1.0000   1.0000   1.0000   1.0000   1.0000   1.0000   1.0000   1.0000
     1.0000   1.0000   1.0000   1.0000   1.0000   1.0000   1.0000   1.0000
     1.0000   1.0000   1.0000   1.0000   1.0000   1.0000   1.0000   1.0000
     1.0000   1.0000   1.0000   1.0000   1.0000   1.0000   1.0000   1.0000
     1.0000   1.0000   1.0000   1.0000   1.0000   1.0000   1.0000   1.0000
     1.0000   1.0000   1.0000   1.0000   1.0000   1.0000   1.0000   1.0000
     1.0000   1.0000   1.0000   1.0000   0.0000   0.0000   0.0000   0.0000
     0.0000   0.0000   0.0000   0.0000   0.0000   0.0000   0.0000   0.0000
     0.0000

          k =-0.0260 0.0247-0.0397 ( 33534 PWs)   bands (ev):

   -92.6077 -92.6072 -53.5138 -53.5133 -53.3730 -53.3724 -53.2128 -53.2125
   -14.8767 -14.4552 -13.4166 -13.3342 -12.0051 -11.8311 -10.7815 -10.7244
    -2.6473  -1.9757   0.3334   0.6299   1.0345   1.0929   1.5798   1.9493
     2.4454   2.6657   3.1163   3.4200   3.5608   4.5041   5.0104   5.2000
     5.7700   6.0789   6.1213   6.3568   6.5304   6.9789   7.1584   7.6302
     7.8613   8.4234   9.3024   9.3877   9.5346   9.6234   9.8053  10.0396
    10.3769  10.7996  11.4311  11.6443  14.2566  14.7668  18.3935  19.1938
    20.4769  21.2963  21.7545  22.4094  23.1043  23.3071  24.0277  24.2168
    25.0403

     occupation numbers 
     1.0000   1.0000   1.0000   1.0000   1.0000   1.0000   1.0000   1.0000
     1.0000   1.0000   1.0000   1.0000   1.0000   1.0000   1.0000   1.0000
     1.0000   1.0000   1.0000   1.0000   1.0000   1.0000   1.0000   1.0000
     1.0000   1.0000   1.0000   1.0000   1.0000   1.0000   1.0000   1.0000
     1.0000   1.0000   1.0000   1.0000   1.0000   1.0000   1.0000   1.0000
     1.0000   1.0000   1.0000   1.0000   1.0000   1.0000   1.0000   1.0000
     1.0000   1.0000   1.0000   1.0000   0.0000   0.0000   0.0000   0.0000
     0.0000   0.0000   0.0000   0.0000   0.0000   0.0000   0.0000   0.0000
     0.0000

          k =-0.0260 0.0247 0.0110 ( 33514 PWs)   bands (ev):

   -92.6077 -92.6072 -53.5138 -53.5133 -53.3730 -53.3724 -53.2128 -53.2125
   -14.9629 -14.3934 -13.4207 -13.3130 -11.9314 -11.8590 -10.7680 -10.7464
    -2.6609  -1.9434   0.4035   0.6856   1.0228   1.1692   1.5537   1.8448
     2.1641   2.6712   2.8502   3.1313   3.4620   4.6551   5.0077   5.1570
     5.8379   6.0318   6.3137   6.6439   6.8157   7.0332   7.3957   7.4803
     7.9996   8.3385   9.2991   9.4970   9.5468   9.6990   9.8260   9.8826
    10.1022  11.0345  11.3699  11.6568  14.4604  14.7615  18.5940  18.8115
    19.7768  21.8520  21.8956  22.5619  22.8821  23.4464  23.8908  24.1421
    25.2190

     occupation numbers 
     1.0000   1.0000   1.0000   1.0000   1.0000   1.0000   1.0000   1.0000
     1.0000   1.0000   1.0000   1.0000   1.0000   1.0000   1.0000   1.0000
     1.0000   1.0000   1.0000   1.0000   1.0000   1.0000   1.0000   1.0000
     1.0000   1.0000   1.0000   1.0000   1.0000   1.0000   1.0000   1.0000
     1.0000   1.0000   1.0000   1.0000   1.0000   1.0000   1.0000   1.0000
     1.0000   1.0000   1.0000   1.0000   1.0000   1.0000   1.0000   1.0000
     1.0000   1.0000   1.0000   1.0000   0.0000   0.0000   0.0000   0.0000
     0.0000   0.0000   0.0000   0.0000   0.0000   0.0000   0.0000   0.0000
     0.0000

 ------ SPIN DOWN ----------


          k = 0.0260 0.0247-0.0397 ( 33534 PWs)   bands (ev):

   -91.2188 -91.2182 -51.6114 -51.6108 -51.5200 -51.5197 -51.4384 -51.4380
   -14.7605 -14.3327 -13.2812 -13.1961 -11.8619 -11.6761 -10.6146 -10.5637
    -2.5454  -1.8683   0.4586   0.7781   1.2085   1.3266   1.8618   2.1580
     2.6982   2.9181   3.3436   3.6540   3.6589   4.6019   5.3599   5.7156
     6.1561   6.3765   6.4573   6.6573   7.2375   7.3048   7.5411   7.8703
     8.1566   8.8324  10.1987  10.3514  10.4641  10.4970  10.6523  10.8878
    12.7685  13.0840  13.6106  13.8239  14.4124  14.8662  18.4385  19.2346
    20.6243  21.4239  21.8847  22.5581  23.2909  23.4087  24.1149  24.3331
    25.1456

     occupation numbers 
     1.0000   1.0000   1.0000   1.0000   1.0000   1.0000   1.0000   1.0000
     1.0000   1.0000   1.0000   1.0000   1.0000   1.0000   1.0000   1.0000
     1.0000   1.0000   1.0000   1.0000   1.0000   1.0000   1.0000   1.0000
     1.0000   1.0000   1.0000   1.0000   1.0000   1.0000   1.0000   1.0000
     1.0000   1.0000   1.0000   1.0000   1.0000   1.0000   1.0000   1.0000
     1.0000   1.0000   1.0000   1.0000   1.0000   1.0000   1.0000   1.0000
     0.0000   0.0000   0.0000   0.0000   0.0000   0.0000   0.0000   0.0000
     0.0000   0.0000   0.0000   0.0000   0.0000   0.0000   0.0000   0.0000
     0.0000

          k = 0.0260 0.0247 0.0110 ( 33514 PWs)   bands (ev):

   -91.2188 -91.2182 -51.6114 -51.6108 -51.5200 -51.5197 -51.4384 -51.4379
   -14.8467 -14.2710 -13.2837 -13.1770 -11.7780 -11.7128 -10.6067 -10.5799
    -2.5574  -1.8359   0.5643   0.8388   1.1544   1.4212   1.7982   2.0457
     2.3545   2.8947   3.0498   3.3179   3.7163   4.7481   5.3877   5.7172
     6.3084   6.4294   6.8696   6.9335   7.1044   7.4924   7.6706   7.7077
     8.3194   8.6920  10.2311  10.3965  10.4715  10.5306  10.6604  10.6949
    12.6464  13.2612  13.6539  13.8691  14.5457  14.8465  18.6312  18.8583
    19.9159  21.9760  22.0515  22.6628  23.0560  23.6009  23.9900  24.2462
    25.3365

     occupation numbers 
     1.0000   1.0000   1.0000   1.0000   1.0000   1.0000   1.0000   1.0000
     1.0000   1.0000   1.0000   1.0000   1.0000   1.0000   1.0000   1.0000
     1.0000   1.0000   1.0000   1.0000   1.0000   1.0000   1.0000   1.0000
     1.0000   1.0000   1.0000   1.0000   1.0000   1.0000   1.0000   1.0000
     1.0000   1.0000   1.0000   1.0000   1.0000   1.0000   1.0000   1.0000
     1.0000   1.0000   1.0000   1.0000   1.0000   1.0000   1.0000   1.0000
     0.0000   0.0000   0.0000   0.0000   0.0000   0.0000   0.0000   0.0000
     0.0000   0.0000   0.0000   0.0000   0.0000   0.0000   0.0000   0.0000
     0.0000

          k =-0.0260 0.0247-0.0397 ( 33534 PWs)   bands (ev):

   -91.2188 -91.2182 -51.6114 -51.6108 -51.5200 -51.5197 -51.4384 -51.4379
   -14.7605 -14.3328 -13.2800 -13.1972 -11.8619 -11.6761 -10.6150 -10.5634
    -2.5455  -1.8681   0.4585   0.7780   1.2080   1.3268   1.8627   2.1575
     2.6975   2.9189   3.3444   3.6534   3.6586   4.6022   5.3592   5.7165
     6.1558   6.3765   6.4572   6.6570   7.2364   7.3051   7.5420   7.8705
     8.1568   8.8324  10.1989  10.3512  10.4641  10.4969  10.6524  10.8878
    12.7685  13.0839  13.6100  13.8246  14.4122  14.8662  18.4385  19.2346
    20.6244  21.4241  21.8844  22.5581  23.2910  23.4084  24.1150  24.3331
    25.1454

     occupation numbers 
     1.0000   1.0000   1.0000   1.0000   1.0000   1.0000   1.0000   1.0000
     1.0000   1.0000   1.0000   1.0000   1.0000   1.0000   1.0000   1.0000
     1.0000   1.0000   1.0000   1.0000   1.0000   1.0000   1.0000   1.0000
     1.0000   1.0000   1.0000   1.0000   1.0000   1.0000   1.0000   1.0000
     1.0000   1.0000   1.0000   1.0000   1.0000   1.0000   1.0000   1.0000
     1.0000   1.0000   1.0000   1.0000   1.0000   1.0000   1.0000   1.0000
     0.0000   0.0000   0.0000   0.0000   0.0000   0.0000   0.0000   0.0000
     0.0000   0.0000   0.0000   0.0000   0.0000   0.0000   0.0000   0.0000
     0.0000

          k =-0.0260 0.0247 0.0110 ( 33514 PWs)   bands (ev):

   -91.2188 -91.2182 -51.6114 -51.6108 -51.5200 -51.5197 -51.4384 -51.4379
   -14.8467 -14.2710 -13.2846 -13.1761 -11.7786 -11.7123 -10.6060 -10.5807
    -2.5573  -1.8362   0.5641   0.8390   1.1548   1.4213   1.7973   2.0461
     2.3546   2.8946   3.0500   3.3175   3.7166   4.7478   5.3884   5.7162
     6.3088   6.4295   6.8699   6.9338   7.1050   7.4918   7.6702   7.7077
     8.3190   8.6922  10.2311  10.3965  10.4714  10.5306  10.6605  10.6948
    12.6464  13.2613  13.6542  13.8687  14.5460  14.8462  18.6314  18.8580
    19.9159  21.9759  22.0518  22.6627  23.0558  23.6010  23.9898  24.2464
    25.3361

     occupation numbers 
     1.0000   1.0000   1.0000   1.0000   1.0000   1.0000   1.0000   1.0000
     1.0000   1.0000   1.0000   1.0000   1.0000   1.0000   1.0000   1.0000
     1.0000   1.0000   1.0000   1.0000   1.0000   1.0000   1.0000   1.0000
     1.0000   1.0000   1.0000   1.0000   1.0000   1.0000   1.0000   1.0000
     1.0000   1.0000   1.0000   1.0000   1.0000   1.0000   1.0000   1.0000
     1.0000   1.0000   1.0000   1.0000   1.0000   1.0000   1.0000   1.0000
     0.0000   0.0000   0.0000   0.0000   0.0000   0.0000   0.0000   0.0000
     0.0000   0.0000   0.0000   0.0000   0.0000   0.0000   0.0000   0.0000
     0.0000

     the Fermi energy is    12.1581 ev

!    total energy              =    -940.10297688 Ry
     estimated scf accuracy    <       0.00000046 Ry
     smearing contrib. (-TS)   =      -0.00000000 Ry
     internal energy E=F+TS    =    -940.10297688 Ry

     The total energy is F=E-TS. E is the sum of the following terms:
     one-electron contribution =    -486.99064569 Ry
     hartree contribution      =     303.51101330 Ry
     xc contribution           =    -165.35802547 Ry
     ewald contribution        =    -591.26531902 Ry

     total magnetization       =     4.00 Bohr mag/cell
     absolute magnetization    =     4.11 Bohr mag/cell

     convergence has been achieved in  13 iterations


     -----------------------------------------------
     Non-local corr. energy    =       1.58043486 Ry
     -----------------------------------------------


     Forces acting on atoms (cartesian axes, Ry/au):

     atom    1 type  1   force =    -0.00000651   -0.00000392    0.00001437
     atom    2 type  1   force =     0.00000241   -0.00002070   -0.00000136
     atom    3 type  2   force =    -0.13730980   -0.02342715   -0.10396754
     atom    4 type  2   force =    -0.13733579    0.02346565    0.10397886
     atom    5 type  2   force =     0.13731020    0.02342983    0.10396343
     atom    6 type  2   force =     0.13733541   -0.02345933   -0.10398121
     atom    7 type  3   force =    -0.16840706    0.36827449   -0.17212858
     atom    8 type  3   force =    -0.16844897   -0.36834662    0.17217051
     atom    9 type  3   force =     0.16840537   -0.36827527    0.17212848
     atom   10 type  3   force =     0.16845815    0.36836254   -0.17217859
     atom   11 type  3   force =     0.24077927    0.36932909    0.10961380
     atom   12 type  3   force =     0.24078978   -0.36936326   -0.10962686
     atom   13 type  3   force =    -0.24077726   -0.36932700   -0.10961476
     atom   14 type  3   force =    -0.24079521    0.36936167    0.10962947
     The non-local contrib.  to forces
     atom    1 type  1   force =     0.00000681   -0.00000088   -0.00001655
     atom    2 type  1   force =    -0.00000510    0.00002360    0.00000504
     atom    3 type  2   force =     0.25498568    0.00030028    0.18992398
     atom    4 type  2   force =     0.25495737   -0.00036494   -0.18990187
     atom    5 type  2   force =    -0.25498298   -0.00029894   -0.18992525
     atom    6 type  2   force =    -0.25496292    0.00034610    0.18990553
     atom    7 type  3   force =     0.72923411   -1.61025194    0.74627124
     atom    8 type  3   force =     0.72913679    1.61007257   -0.74617892
     atom    9 type  3   force =    -0.72923657    1.61025929   -0.74627043
     atom   10 type  3   force =    -0.72911985   -1.61004968    0.74616478
     atom   11 type  3   force =    -1.11667429   -1.66635661   -0.53411221
     atom   12 type  3   force =    -1.11664417    1.66626440    0.53404273
     atom   13 type  3   force =     1.11667693    1.66635244    0.53411389
     atom   14 type  3   force =     1.11663273   -1.66626307   -0.53403375
     The ionic contribution  to forces
     atom    1 type  1   force =    -0.00000000   -0.00000000   -0.00000000
     atom    2 type  1   force =     0.00000000   -0.00000000    0.00000000
     atom    3 type  2   force =    -1.37262734   -0.19165432   -1.22624921
     atom    4 type  2   force =    -1.37262734    0.19165432    1.22624921
     atom    5 type  2   force =     1.37262734    0.19165432    1.22624921
     atom    6 type  2   force =     1.37262734   -0.19165432   -1.22624921
     atom    7 type  3   force =    -3.87081023    2.28734940   -2.69133868
     atom    8 type  3   force =    -3.87081023   -2.28734940    2.69133868
     atom    9 type  3   force =     3.87081023   -2.28734940    2.69133868
     atom   10 type  3   force =     3.87081023    2.28734940   -2.69133868
     atom   11 type  3   force =    10.06096397    1.57160416    4.81053345
     atom   12 type  3   force =    10.06096397   -1.57160416   -4.81053345
     atom   13 type  3   force =   -10.06096397   -1.57160416   -4.81053345
     atom   14 type  3   force =   -10.06096397    1.57160416    4.81053345
     The local contribution  to forces
     atom    1 type  1   force =     0.00004686    0.00001446   -0.00011625
     atom    2 type  1   force =    -0.00001054    0.00022767    0.00002247
     atom    3 type  2   force =     0.98072040    0.16465023    0.93306021
     atom    4 type  2   force =     0.98065860   -0.16504343   -0.93299641
     atom    5 type  2   force =    -0.98072603   -0.16466136   -0.93303880
     atom    6 type  2   force =    -0.98066093    0.16491671    0.93302206
     atom    7 type  3   force =     2.98579436   -0.33647510    1.78578549
     atom    8 type  3   force =     2.98580444    0.33655094   -1.78581338
     atom    9 type  3   force =    -2.98579512    0.33651270   -1.78578938
     atom   10 type  3   force =    -2.98581937   -0.33662373    1.78581832
     atom   11 type  3   force =    -8.72616021    0.43646705   -4.17818969
     atom   12 type  3   force =    -8.72607767   -0.43680518    4.17806674
     atom   13 type  3   force =     8.72616255   -0.43649815    4.17818645
     atom   14 type  3   force =     8.72607282    0.43676290   -4.17803238
     The core correction contribution to forces
     atom    1 type  1   force =    -0.00000005    0.00000015    0.00000021
     atom    2 type  1   force =     0.00000011    0.00000007   -0.00000007
     atom    3 type  2   force =    -0.00044952    0.00314453   -0.00075342
     atom    4 type  2   force =    -0.00044815   -0.00313891    0.00075172
     atom    5 type  2   force =     0.00044935   -0.00314453    0.00075358
     atom    6 type  2   force =     0.00044851    0.00314022   -0.00075193
     atom    7 type  3   force =    -0.01247691    0.02728635   -0.01264787
     atom    8 type  3   force =    -0.01247337   -0.02728032    0.01264447
     atom    9 type  3   force =     0.01247701   -0.02728643    0.01264779
     atom   10 type  3   force =     0.01247278    0.02727920   -0.01264413
     atom   11 type  3   force =     0.02264931    0.02709455    0.01137888
     atom   12 type  3   force =     0.02264757   -0.02709356   -0.01137635
     atom   13 type  3   force =    -0.02264932   -0.02709452   -0.01137897
     atom   14 type  3   force =    -0.02264736    0.02709335    0.01137636
     The Hubbard contrib.    to forces
     atom    1 type  1   force =     0.00000000    0.00000000    0.00000000
     atom    2 type  1   force =     0.00000000    0.00000000    0.00000000
     atom    3 type  2   force =     0.00000000    0.00000000    0.00000000
     atom    4 type  2   force =     0.00000000    0.00000000    0.00000000
     atom    5 type  2   force =     0.00000000    0.00000000    0.00000000
     atom    6 type  2   force =     0.00000000    0.00000000    0.00000000
     atom    7 type  3   force =     0.00000000    0.00000000    0.00000000
     atom    8 type  3   force =     0.00000000    0.00000000    0.00000000
     atom    9 type  3   force =     0.00000000    0.00000000    0.00000000
     atom   10 type  3   force =     0.00000000    0.00000000    0.00000000
     atom   11 type  3   force =     0.00000000    0.00000000    0.00000000
     atom   12 type  3   force =     0.00000000    0.00000000    0.00000000
     atom   13 type  3   force =     0.00000000    0.00000000    0.00000000
     atom   14 type  3   force =     0.00000000    0.00000000    0.00000000
     The SCF correction term to forces
     atom    1 type  1   force =    -0.00005984   -0.00001811    0.00014764
     atom    2 type  1   force =     0.00001822   -0.00027249   -0.00002813
     atom    3 type  2   force =     0.00006128    0.00013168    0.00005158
     atom    4 type  2   force =     0.00012403    0.00035816   -0.00012311
     atom    5 type  2   force =    -0.00005719   -0.00012012   -0.00007465
     atom    6 type  2   force =    -0.00011631   -0.00020850    0.00009301
     atom    7 type  3   force =    -0.00014809    0.00036531   -0.00019809
     atom    8 type  3   force =    -0.00010631   -0.00034086    0.00018033
     atom    9 type  3   force =     0.00015012   -0.00041189    0.00020249
     atom   10 type  3   force =     0.00011465    0.00040689   -0.00017820
     atom   11 type  3   force =     0.00000080    0.00051949    0.00000405
     atom   12 type  3   force =    -0.00009962   -0.00012521    0.00017413
     atom   13 type  3   force =    -0.00000316   -0.00048307   -0.00000200
     atom   14 type  3   force =     0.00011087    0.00016387   -0.00021354

     Total force =     1.311927     Total SCF correction =     0.001347


     Computing stress (Cartesian axis) and pressure



     -----------------------------------------------
     Non-local corr. energy    =       1.58043486 Ry
     -----------------------------------------------

          total   stress  (Ry/bohr**3)                   (kbar)     P=     1131.26
   0.00541780   0.00000003  -0.00000056          796.99        0.00       -0.08
   0.00000003   0.01338216  -0.00101611            0.00     1968.58     -149.48
  -0.00000056  -0.00101611   0.00427055           -0.08     -149.48      628.22

     kinetic stress (kbar)  68516.89      0.02     -0.06
                                0.02  65729.44    170.62
                               -0.06    170.62  68454.44

     local   stress (kbar)  -9409.46     -0.16     -0.43
                               -0.16 -65655.98   4122.88
                               -0.43   4122.88  -3847.41

     nonloc. stress (kbar)  -9896.26     -0.02      0.02
                               -0.02  -9757.26     22.79
                                0.02     22.79  -9757.74

     hartree stress (kbar)  15393.67      0.17      0.39
                                0.17  34285.13  -1048.77
                                0.39  -1048.77  13952.41

     exc-cor stress (kbar)  -4144.41      0.00     -0.00
                                0.00  -3969.96    -23.16
                               -0.00    -23.16  -4186.13

     corecor stress (kbar)  -6238.68     -0.00     -0.00
                               -0.00  -6246.79      2.96
                               -0.00      2.96  -6223.26

     ewald   stress (kbar) -53554.51      0.00     -0.00
                                0.00 -12503.66  -3401.38
                               -0.00  -3401.38 -57900.86

     hubbard stress (kbar)      0.00      0.00      0.00
                                0.00      0.00      0.00
                                0.00      0.00      0.00

     DFT-D   stress (kbar)      0.00      0.00      0.00
                                0.00      0.00      0.00
                                0.00      0.00      0.00

     XDM     stress (kbar)      0.00      0.00      0.00
                                0.00      0.00      0.00
                                0.00      0.00      0.00

     dft-nl  stress (kbar)    129.74      0.00      0.00
                                0.00     87.66      4.57
                                0.00      4.57    136.77

     TS-vdW  stress (kbar)      0.00      0.00      0.00
                                0.00      0.00      0.00
                                0.00      0.00      0.00


                                0.00      0.00      0.00
                                0.00      0.00      0.00


                                0.00      0.00      0.00


     Writing all to output data dir ./calc.save/

     init_run     :     27.40s CPU     27.63s WALL (       1 calls)
     electrons    :     98.99s CPU    103.21s WALL (       1 calls)
     forces       :      9.30s CPU      9.42s WALL (       1 calls)
     stress       :     24.99s CPU     25.27s WALL (       1 calls)

     Called by init_run:
     wfcinit      :      1.96s CPU      2.05s WALL (       1 calls)
     wfcinit:wfcr :      1.70s CPU      1.78s WALL (       8 calls)
     potinit      :     17.21s CPU     17.30s WALL (       1 calls)
     hinit0       :      8.16s CPU      8.21s WALL (       1 calls)

     Called by electrons:
     c_bands      :     80.82s CPU     84.27s WALL (      13 calls)
     sum_band     :      9.79s CPU     10.23s WALL (      13 calls)
     v_of_rho     :     21.29s CPU     21.65s WALL (      14 calls)
     v_h          :      0.04s CPU      0.04s WALL (      14 calls)
     v_xc         :     22.46s CPU     22.87s WALL (      16 calls)
     mix_rho      :      0.28s CPU      0.28s WALL (      13 calls)
     vdW_kernel   :     12.63s CPU     12.68s WALL (       1 calls)

     Called by c_bands:
     init_us_2    :      1.01s CPU      1.02s WALL (     232 calls)
     init_us_2:cp :      1.01s CPU      1.02s WALL (     232 calls)
     cegterg      :     77.09s CPU     80.52s WALL (     104 calls)

     Called by sum_band:
     sum_band:wei :      0.00s CPU      0.00s WALL (      13 calls)
     sum_band:loo :      9.67s CPU     10.10s WALL (      13 calls)
     sum_band:buf :      0.12s CPU      0.12s WALL (     104 calls)
     sum_band:ini :      0.45s CPU      0.46s WALL (     104 calls)

     Called by *egterg:
     cdiaghg      :      2.10s CPU      2.16s WALL (     514 calls)
     cegterg:over :      4.33s CPU      4.36s WALL (     410 calls)
     cegterg:upda :      3.14s CPU      3.17s WALL (     410 calls)
     cegterg:last :      4.52s CPU      4.56s WALL (     277 calls)
     cdiaghg:chol :      0.13s CPU      0.13s WALL (     514 calls)
     cdiaghg:inve :      0.03s CPU      0.03s WALL (     514 calls)
     cdiaghg:para :      0.28s CPU      0.30s WALL (    1028 calls)
     h_psi        :     62.81s CPU     66.15s WALL (     522 calls)
     g_psi        :      0.42s CPU      0.42s WALL (     410 calls)

     Called by h_psi:
     h_psi:calbec :      4.28s CPU      4.35s WALL (     522 calls)
     vloc_psi     :     54.01s CPU     57.27s WALL (     522 calls)
     add_vuspsi   :      4.15s CPU      4.17s WALL (     522 calls)

     General routines
     calbec       :      4.76s CPU      4.84s WALL (     562 calls)
     fft          :      2.95s CPU      3.29s WALL (    1382 calls)
     ffts         :      0.05s CPU      0.05s WALL (      26 calls)
     fftw         :     56.10s CPU     59.53s WALL (   48518 calls)

     Parallel routines

     PWSCF        :   2m40.87s CPU   2m46.11s WALL


   This run was terminated on:  11:42:46  21Sep2022            

=------------------------------------------------------------------------------=
   JOB DONE.
=------------------------------------------------------------------------------=
