
     Program PWSCF v.7.0 starts on 25Oct2022 at 16: 4:22 

     This program is part of the open-source Quantum ESPRESSO suite
     for quantum simulation of materials; please cite
         "P. Giannozzi et al., J. Phys.:Condens. Matter 21 395502 (2009);
         "P. Giannozzi et al., J. Phys.:Condens. Matter 29 465901 (2017);
         "P. Giannozzi et al., J. Chem. Phys. 152 154105 (2020);
          URL http://www.quantum-espresso.org", 
     in publications or presentations arising from this work. More details at
     http://www.quantum-espresso.org/quote

     Parallel version (MPI), running on     8 processors

     MPI processes distributed on     1 nodes
     R & G space division:  proc/nbgrp/npool/nimage =       8
     168537 MiB available memory on the printing compute node when the environment starts

     Reading input from pw.inp

     Current dimensions of program PWSCF are:
     Max number of different atomic species (ntypx) = 10
     Max number of k-points (npk) =  40000
     Max angular momentum in pseudopotentials (lmaxx) =  4
     Message from routine cell_base_init:
     DEPRECATED: use true lattice parameter, not A to a.u. conversion factor

     IMPORTANT: XC functional enforced from input :
     Exchange-correlation= VDW-DF
                           (   1   4   4   0   1   0   0)
     Any further DFT definition will be discarded
     Please, verify this is what you really want


     Subspace diagonalization in iterative solution of the eigenvalue problem:
     one sub-group per band group will be used
     scalapack distributed-memory algorithm (size of sub-group:  2*  2 procs)


     Parallelization info
     --------------------
     sticks:   dense  smooth     PW     G-vecs:    dense   smooth      PW
     Min         939     939    244                61194    61194    8157
     Max         940     940    245                61195    61195    8160
     Sum        7515    7515   1959               489555   489555   65271

     Using Slab Decomposition



     bravais-lattice index     =            0
     lattice parameter (alat)  =       1.1000  a.u.
     unit-cell volume          =    1281.0983 (a.u.)^3
     number of atoms/cell      =           14
     number of atomic types    =            3
     number of electrons       =       100.00
     number of Kohn-Sham states=           65
     kinetic-energy cutoff     =     200.0000  Ry
     charge density cutoff     =     800.0000  Ry
     scf convergence threshold =      1.0E-06
     mixing beta               =       0.7000
     number of iterations used =            8  plain     mixing
     Exchange-correlation= VDW-DF
                           (   1   4   4   0   1   0   0)

     celldm(1)=   1.100000  celldm(2)=   0.000000  celldm(3)=   0.000000
     celldm(4)=   0.000000  celldm(5)=   0.000000  celldm(6)=   0.000000

     crystal axes: (cart. coord. in units of alat)
               a(1) = (   0.000000  10.137047   0.000000 )  
               a(2) = (   9.612603   0.000000   0.000000 )  
               a(3) = (   0.000000  -5.745581  -9.877611 )  

     reciprocal axes: (cart. coord. in units 2 pi/alat)
               b(1) = (  0.000000  0.098648 -0.057381 )  
               b(2) = (  0.104030 -0.000000  0.000000 )  
               b(3) = (  0.000000  0.000000 -0.101239 )  


     PseudoPot. # 1 for Ni read from file:
     ./28_Ni_18_1.7_2.2_pbe_n_v1.0.upf
     MD5 check sum: 081853746d39b5abdc129692a5e93361
     Pseudo is Norm-conserving + core correction, Zval = 18.0
     Generated using ONCVPSP code by D. R. Hamann
     Using radial grid of 1370 points,  6 beta functions with: 
                l(1) =   0
                l(2) =   0
                l(3) =   1
                l(4) =   1
                l(5) =   2
                l(6) =   2

     PseudoPot. # 2 for C  read from file:
     ./06_C_4_1.2_1.2_pbe_n_v1.0.upf
     MD5 check sum: 7e0e17a2517474b8bea671dc4b65026c
     Pseudo is Norm-conserving + core correction, Zval =  4.0
     Generated using ONCVPSP code by D. R. Hamann
     Using radial grid of 1246 points,  4 beta functions with: 
                l(1) =   0
                l(2) =   0
                l(3) =   1
                l(4) =   1

     PseudoPot. # 3 for O  read from file:
     ./08_O_6_1.2_1.4_pbe_n_v1.0.upf
     MD5 check sum: a8b7f44dbbd6106bf79c6036dc5c6a43
     Pseudo is Norm-conserving + core correction, Zval =  6.0
     Generated using ONCVPSP code by D. R. Hamann
     Using radial grid of  934 points,  5 beta functions with: 
                l(1) =   0
                l(2) =   0
                l(3) =   1
                l(4) =   1
                l(5) =   2

     atomic species   valence    mass     pseudopotential
        Ni            18.00    59.00000     Ni( 1.00)
        C              4.00    12.00000     C ( 1.00)
        O              6.00    16.00000     O ( 1.00)

     Starting magnetic structure 
     atomic species   magnetization
        Ni           1.000
        C            0.000
        O            0.000

     No symmetry found


                                    s                        frac. trans.

      isym =  1     identity                                     

 cryst.   s( 1) = (     1          0          0      )
                  (     0          1          0      )
                  (     0          0          1      )

 cart.    s( 1) = (  1.0000000  0.0000000  0.0000000 )
                  (  0.0000000  1.0000000  0.0000000 )
                  (  0.0000000  0.0000000  1.0000000 )


   Cartesian axes

     site n.     atom                  positions (alat units)
         1           Ni  tau(   1) = (   4.8063017  -2.8727903  -4.9388055  )
         2           Ni  tau(   2) = (   0.0000000   0.0000000   0.0000000  )
         3           C   tau(   3) = (   5.9644954   2.2506991  -4.0580090  )
         4           C   tau(   4) = (   1.1581937   5.0135579  -0.8807964  )
         5           C   tau(   5) = (   3.6481079   2.1407676  -5.8196019  )
         6           C   tau(   6) = (   8.4544096  -0.6220912  -8.9968145  )
         7           O   tau(   7) = (   2.8122056   4.2227277  -6.7025319  )
         8           O   tau(   8) = (   7.6185072  -2.7040513  -8.1138845  )
         9           O   tau(   9) = (   6.8003978   0.1687390  -3.1750790  )
        10           O   tau(  10) = (   1.9940961   7.0955180  -1.7637265  )
        11           O   tau(  11) = (   6.8795095   4.4078477  -3.6179615  )
        12           O   tau(  12) = (   2.0732078   2.8564094  -1.3208440  )
        13           O   tau(  13) = (   2.7330938  -0.0163809  -6.2596495  )
        14           O   tau(  14) = (   7.5393955   1.5350574  -8.5567669  )

   Crystallographic axes

     site n.     atom                  positions (cryst. coord.)
         1           Ni  tau(   1) = ( -0.0000000  0.5000000  0.5000000  )
         2           Ni  tau(   2) = (  0.0000000  0.0000000  0.0000000  )
         3           C   tau(   3) = (  0.4548810  0.6204870  0.4108290  )
         4           C   tau(   4) = (  0.5451190  0.1204870  0.0891710  )
         5           C   tau(   5) = (  0.5451190  0.3795130  0.5891710  )
         6           C   tau(   6) = (  0.4548810  0.8795130  0.9108290  )
         7           O   tau(   7) = (  0.8011640  0.2925540  0.6785580  )
         8           O   tau(   8) = (  0.1988360  0.7925540  0.8214420  )
         9           O   tau(   9) = (  0.1988360  0.7074460  0.3214420  )
        10           O   tau(  10) = (  0.8011640  0.2074460  0.1785580  )
        11           O   tau(  11) = (  0.6424290  0.7156760  0.3662790  )
        12           O   tau(  12) = (  0.3575710  0.2156760  0.1337210  )
        13           O   tau(  13) = (  0.3575710  0.2843240  0.6337210  )
        14           O   tau(  14) = (  0.6424290  0.7843240  0.8662790  )

     number of k points=     4  Fermi-Dirac smearing, width (Ry)=  0.0020
                       cart. coord. in units 2pi/alat
        k(    1) = (   0.0260075   0.0246620  -0.0396551), wk =   0.2500000
        k(    2) = (   0.0260075   0.0246620   0.0109644), wk =   0.2500000
        k(    3) = (  -0.0260075   0.0246620  -0.0396551), wk =   0.2500000
        k(    4) = (  -0.0260075   0.0246620   0.0109644), wk =   0.2500000

                       cryst. coord.
        k(    1) = (   0.2500000   0.2500000   0.2500000), wk =   0.2500000
        k(    2) = (   0.2500000   0.2500000  -0.2500000), wk =   0.2500000
        k(    3) = (   0.2500000  -0.2500000   0.2500000), wk =   0.2500000
        k(    4) = (   0.2500000  -0.2500000  -0.2500000), wk =   0.2500000

     Dense  grid:   489555 G-vectors     FFT dimensions: ( 108,  96, 120)

     Dynamical RAM for                 wfc:       7.59 MB

     Dynamical RAM for     wfc (w. buffer):      68.27 MB

     Dynamical RAM for           str. fact:       2.80 MB

     Dynamical RAM for           local pot:       0.00 MB

     Dynamical RAM for          nlocal pot:      20.07 MB

     Dynamical RAM for                qrad:       6.81 MB

     Dynamical RAM for          rho,v,vnew:      12.72 MB

     Dynamical RAM for               rhoin:       4.24 MB

     Dynamical RAM for            rho*nmix:      29.88 MB

     Dynamical RAM for           G-vectors:       3.97 MB

     Dynamical RAM for          h,s,v(r/c):       0.19 MB

     Dynamical RAM for          <psi|beta>:       0.17 MB

     Dynamical RAM for                 psi:      15.17 MB

     Dynamical RAM for                hpsi:      15.17 MB

     Dynamical RAM for      wfcinit/wfcrot:      15.27 MB

     Estimated static dynamical RAM per process >     129.73 MB

     Estimated max dynamical RAM per process >     190.32 MB

     Estimated total dynamical RAM >       1.49 GB
     Generating pointlists ...
     new r_m :   1.5545 (alat units)  1.7100 (a.u.) for type    1
     new r_m :   0.9835 (alat units)  1.0818 (a.u.) for type    2
     new r_m :   0.9835 (alat units)  1.0818 (a.u.) for type    3

     Initial potential from superposition of free atoms

     starting charge      99.9993, renormalised to     100.0000


     %%%%%%%%%%%%%%%%%%%%%%%%%%%%%%%%%%%%%%%%%%%%%%%%%%%%%%%%%%%%%%%%%%%%%%%%
     %                                                                      %
     % You are using vdW-DF, which was implemented by the Thonhauser group. %
     % Please cite the following two papers that made this development      %
     % possible and the two reviews that describe the various versions:     %
     %                                                                      %
     %   T. Thonhauser et al., PRL 115, 136402 (2015).                      %
     %   T. Thonhauser et al., PRB 76, 125112 (2007).                       %
     %   K. Berland et al., Rep. Prog. Phys. 78, 066501 (2015).             %
     %   D.C. Langreth et al., J. Phys.: Condens. Matter 21, 084203 (2009). %
     %                                                                      %
     %                                                                      %
     % If you are calculating the stress with vdW-DF, please also cite:     %
     %                                                                      %
     %   R. Sabatini et al., J. Phys.: Condens. Matter 24, 424209 (2012).   %
     %                                                                      %
     %%%%%%%%%%%%%%%%%%%%%%%%%%%%%%%%%%%%%%%%%%%%%%%%%%%%%%%%%%%%%%%%%%%%%%%%


     Carrying out vdW-DF run using the following parameters:
     Nqs    =  20  Npoints =  1024  r_max =  100.000
     q_mesh =  0.00001000  0.04494208  0.09755937  0.15916263
               0.23128650  0.31572767  0.41458969  0.53033537
               0.66584808  0.82450364  1.01025438  1.22772762
               1.48234092  1.78043706  2.12944203  2.53805004
               3.01644009  3.57652955  4.23227104  5.00000000


     -----------------------------------------------
     Non-local corr. energy    =       1.56109943 Ry
     -----------------------------------------------

     Starting wfcs are random

     total cpu time spent up to now is       40.1 secs

     per-process dynamical memory:   203.3 Mb

     Self-consistent Calculation

     iteration #  1     ecut=   200.00 Ry     beta= 0.70
     Davidson diagonalization with overlap

---- Real-time Memory Report at c_bands before calling an iterative solver
           239 MiB given to the printing process from OS
           198 MiB allocation reported by mallinfo(arena+hblkhd)
        162954 MiB available memory on the node where the printing process lives
------------------
     ethr =  1.00E-02,  avg # of iterations = 13.8


     -----------------------------------------------
     Non-local corr. energy    =       1.74172699 Ry
     -----------------------------------------------


     total cpu time spent up to now is       85.2 secs

     total energy              =    -929.10921512 Ry
     estimated scf accuracy    <      20.58454061 Ry

     total magnetization       =    12.00 Bohr mag/cell
     absolute magnetization    =    12.05 Bohr mag/cell

     iteration #  2     ecut=   200.00 Ry     beta= 0.70
     Davidson diagonalization with overlap

---- Real-time Memory Report at c_bands before calling an iterative solver
           326 MiB given to the printing process from OS
           279 MiB allocation reported by mallinfo(arena+hblkhd)
        176618 MiB available memory on the node where the printing process lives
------------------
     ethr =  1.00E-02,  avg # of iterations =  4.5


     -----------------------------------------------
     Non-local corr. energy    =       1.73939203 Ry
     -----------------------------------------------


     total cpu time spent up to now is      103.2 secs

     total energy              =    -931.69467964 Ry
     estimated scf accuracy    <      83.07227348 Ry

     total magnetization       =     0.99 Bohr mag/cell
     absolute magnetization    =     2.56 Bohr mag/cell

     iteration #  3     ecut=   200.00 Ry     beta= 0.70
     Davidson diagonalization with overlap

---- Real-time Memory Report at c_bands before calling an iterative solver
           330 MiB given to the printing process from OS
           283 MiB allocation reported by mallinfo(arena+hblkhd)
        176592 MiB available memory on the node where the printing process lives
------------------
     ethr =  1.00E-02,  avg # of iterations =  2.0


     -----------------------------------------------
     Non-local corr. energy    =       1.78815945 Ry
     -----------------------------------------------


     total cpu time spent up to now is      116.6 secs

     total energy              =    -938.23817169 Ry
     estimated scf accuracy    <      12.50072512 Ry

     total magnetization       =     0.28 Bohr mag/cell
     absolute magnetization    =     1.07 Bohr mag/cell

     iteration #  4     ecut=   200.00 Ry     beta= 0.70
     Davidson diagonalization with overlap

---- Real-time Memory Report at c_bands before calling an iterative solver
           334 MiB given to the printing process from OS
           286 MiB allocation reported by mallinfo(arena+hblkhd)
        176562 MiB available memory on the node where the printing process lives
------------------
     ethr =  1.00E-02,  avg # of iterations =  2.0


     -----------------------------------------------
     Non-local corr. energy    =       1.86505736 Ry
     -----------------------------------------------


     total cpu time spent up to now is      127.9 secs

     total energy              =    -939.29482422 Ry
     estimated scf accuracy    <       6.00091299 Ry

     total magnetization       =     2.05 Bohr mag/cell
     absolute magnetization    =     2.21 Bohr mag/cell

     iteration #  5     ecut=   200.00 Ry     beta= 0.70
     Davidson diagonalization with overlap

---- Real-time Memory Report at c_bands before calling an iterative solver
           337 MiB given to the printing process from OS
           290 MiB allocation reported by mallinfo(arena+hblkhd)
        176532 MiB available memory on the node where the printing process lives
------------------
     ethr =  6.00E-03,  avg # of iterations =  2.0


     -----------------------------------------------
     Non-local corr. energy    =       1.81881372 Ry
     -----------------------------------------------


     total cpu time spent up to now is      139.5 secs

     total energy              =    -937.42597984 Ry
     estimated scf accuracy    <      36.99909061 Ry

     total magnetization       =     5.40 Bohr mag/cell
     absolute magnetization    =     5.80 Bohr mag/cell

     iteration #  6     ecut=   200.00 Ry     beta= 0.70
     Davidson diagonalization with overlap

---- Real-time Memory Report at c_bands before calling an iterative solver
           341 MiB given to the printing process from OS
           294 MiB allocation reported by mallinfo(arena+hblkhd)
        176502 MiB available memory on the node where the printing process lives
------------------
     ethr =  6.00E-03,  avg # of iterations =  2.0


     -----------------------------------------------
     Non-local corr. energy    =       1.81763525 Ry
     -----------------------------------------------


     total cpu time spent up to now is      150.9 secs

     total energy              =    -939.98469837 Ry
     estimated scf accuracy    <       4.06160199 Ry

     total magnetization       =     1.86 Bohr mag/cell
     absolute magnetization    =     1.94 Bohr mag/cell

     iteration #  7     ecut=   200.00 Ry     beta= 0.70
     Davidson diagonalization with overlap

---- Real-time Memory Report at c_bands before calling an iterative solver
           345 MiB given to the printing process from OS
           298 MiB allocation reported by mallinfo(arena+hblkhd)
        176470 MiB available memory on the node where the printing process lives
------------------
     ethr =  4.06E-03,  avg # of iterations =  1.6


     -----------------------------------------------
     Non-local corr. energy    =       1.81816103 Ry
     -----------------------------------------------


     total cpu time spent up to now is      161.7 secs

     total energy              =    -940.31235264 Ry
     estimated scf accuracy    <       6.97094211 Ry

     total magnetization       =     0.78 Bohr mag/cell
     absolute magnetization    =     0.87 Bohr mag/cell

     iteration #  8     ecut=   200.00 Ry     beta= 0.70
     Davidson diagonalization with overlap

---- Real-time Memory Report at c_bands before calling an iterative solver
           349 MiB given to the printing process from OS
           301 MiB allocation reported by mallinfo(arena+hblkhd)
        176440 MiB available memory on the node where the printing process lives
------------------
     ethr =  4.06E-03,  avg # of iterations =  1.0


     -----------------------------------------------
     Non-local corr. energy    =       1.81802839 Ry
     -----------------------------------------------


     total cpu time spent up to now is      172.3 secs

     total energy              =    -940.44025792 Ry
     estimated scf accuracy    <       0.54826298 Ry

     total magnetization       =     1.49 Bohr mag/cell
     absolute magnetization    =     1.58 Bohr mag/cell

     iteration #  9     ecut=   200.00 Ry     beta= 0.70
     Davidson diagonalization with overlap

---- Real-time Memory Report at c_bands before calling an iterative solver
           353 MiB given to the printing process from OS
           305 MiB allocation reported by mallinfo(arena+hblkhd)
        176412 MiB available memory on the node where the printing process lives
------------------
     ethr =  5.48E-04,  avg # of iterations =  6.9


     -----------------------------------------------
     Non-local corr. energy    =       1.81850705 Ry
     -----------------------------------------------


     total cpu time spent up to now is      184.7 secs

     total energy              =    -940.48287329 Ry
     estimated scf accuracy    <       0.35987355 Ry

     total magnetization       =     2.51 Bohr mag/cell
     absolute magnetization    =     2.53 Bohr mag/cell

     iteration # 10     ecut=   200.00 Ry     beta= 0.70
     Davidson diagonalization with overlap

---- Real-time Memory Report at c_bands before calling an iterative solver
           356 MiB given to the printing process from OS
           309 MiB allocation reported by mallinfo(arena+hblkhd)
        176380 MiB available memory on the node where the printing process lives
------------------
     ethr =  3.60E-04,  avg # of iterations =  2.1


     -----------------------------------------------
     Non-local corr. energy    =       1.81801954 Ry
     -----------------------------------------------


     total cpu time spent up to now is      195.6 secs

     total energy              =    -940.51229961 Ry
     estimated scf accuracy    <       0.11425027 Ry

     total magnetization       =     3.86 Bohr mag/cell
     absolute magnetization    =     3.87 Bohr mag/cell

     iteration # 11     ecut=   200.00 Ry     beta= 0.70
     Davidson diagonalization with overlap

---- Real-time Memory Report at c_bands before calling an iterative solver
           356 MiB given to the printing process from OS
           309 MiB allocation reported by mallinfo(arena+hblkhd)
        176381 MiB available memory on the node where the printing process lives
------------------
     ethr =  1.14E-04,  avg # of iterations =  3.1


     -----------------------------------------------
     Non-local corr. energy    =       1.81840213 Ry
     -----------------------------------------------


     total cpu time spent up to now is      206.8 secs

     total energy              =    -940.52995218 Ry
     estimated scf accuracy    <       0.08845585 Ry

     total magnetization       =     3.99 Bohr mag/cell
     absolute magnetization    =     4.01 Bohr mag/cell

     iteration # 12     ecut=   200.00 Ry     beta= 0.70
     Davidson diagonalization with overlap

---- Real-time Memory Report at c_bands before calling an iterative solver
           356 MiB given to the printing process from OS
           309 MiB allocation reported by mallinfo(arena+hblkhd)
        176381 MiB available memory on the node where the printing process lives
------------------
     ethr =  8.85E-05,  avg # of iterations =  1.2


     -----------------------------------------------
     Non-local corr. energy    =       1.81807985 Ry
     -----------------------------------------------


     total cpu time spent up to now is      217.4 secs

     total energy              =    -940.54802977 Ry
     estimated scf accuracy    <       0.06876785 Ry

     total magnetization       =     4.00 Bohr mag/cell
     absolute magnetization    =     4.04 Bohr mag/cell

     iteration # 13     ecut=   200.00 Ry     beta= 0.70
     Davidson diagonalization with overlap

---- Real-time Memory Report at c_bands before calling an iterative solver
           356 MiB given to the printing process from OS
           309 MiB allocation reported by mallinfo(arena+hblkhd)
        176382 MiB available memory on the node where the printing process lives
------------------
     ethr =  6.88E-05,  avg # of iterations =  1.9


     -----------------------------------------------
     Non-local corr. energy    =       1.81789768 Ry
     -----------------------------------------------


     total cpu time spent up to now is      228.4 secs

     total energy              =    -940.55163122 Ry
     estimated scf accuracy    <       0.03399887 Ry

     total magnetization       =     4.00 Bohr mag/cell
     absolute magnetization    =     4.11 Bohr mag/cell

     iteration # 14     ecut=   200.00 Ry     beta= 0.70
     Davidson diagonalization with overlap

---- Real-time Memory Report at c_bands before calling an iterative solver
           356 MiB given to the printing process from OS
           309 MiB allocation reported by mallinfo(arena+hblkhd)
        176382 MiB available memory on the node where the printing process lives
------------------
     ethr =  3.40E-05,  avg # of iterations =  3.5


     -----------------------------------------------
     Non-local corr. energy    =       1.81831381 Ry
     -----------------------------------------------


     total cpu time spent up to now is      239.8 secs

     total energy              =    -940.55106572 Ry
     estimated scf accuracy    <       0.02331368 Ry

     total magnetization       =     4.00 Bohr mag/cell
     absolute magnetization    =     4.14 Bohr mag/cell

     iteration # 15     ecut=   200.00 Ry     beta= 0.70
     Davidson diagonalization with overlap

---- Real-time Memory Report at c_bands before calling an iterative solver
           356 MiB given to the printing process from OS
           309 MiB allocation reported by mallinfo(arena+hblkhd)
        176381 MiB available memory on the node where the printing process lives
------------------
     ethr =  2.33E-05,  avg # of iterations =  3.4


     -----------------------------------------------
     Non-local corr. energy    =       1.81831574 Ry
     -----------------------------------------------


     total cpu time spent up to now is      251.2 secs

     total energy              =    -940.55148271 Ry
     estimated scf accuracy    <       0.01330989 Ry

     total magnetization       =     4.00 Bohr mag/cell
     absolute magnetization    =     4.15 Bohr mag/cell

     iteration # 16     ecut=   200.00 Ry     beta= 0.70
     Davidson diagonalization with overlap

---- Real-time Memory Report at c_bands before calling an iterative solver
           356 MiB given to the printing process from OS
           309 MiB allocation reported by mallinfo(arena+hblkhd)
        176381 MiB available memory on the node where the printing process lives
------------------
     ethr =  1.33E-05,  avg # of iterations =  3.0


     -----------------------------------------------
     Non-local corr. energy    =       1.81826850 Ry
     -----------------------------------------------


     total cpu time spent up to now is      262.2 secs

     total energy              =    -940.55131971 Ry
     estimated scf accuracy    <       0.00891682 Ry

     total magnetization       =     4.00 Bohr mag/cell
     absolute magnetization    =     4.14 Bohr mag/cell

     iteration # 17     ecut=   200.00 Ry     beta= 0.70
     Davidson diagonalization with overlap

---- Real-time Memory Report at c_bands before calling an iterative solver
           356 MiB given to the printing process from OS
           309 MiB allocation reported by mallinfo(arena+hblkhd)
        176379 MiB available memory on the node where the printing process lives
------------------
     ethr =  8.92E-06,  avg # of iterations =  3.8


     -----------------------------------------------
     Non-local corr. energy    =       1.81835912 Ry
     -----------------------------------------------


     total cpu time spent up to now is      273.6 secs

     total energy              =    -940.55012196 Ry
     estimated scf accuracy    <       0.00514630 Ry

     total magnetization       =     4.00 Bohr mag/cell
     absolute magnetization    =     4.14 Bohr mag/cell

     iteration # 18     ecut=   200.00 Ry     beta= 0.70
     Davidson diagonalization with overlap

---- Real-time Memory Report at c_bands before calling an iterative solver
           356 MiB given to the printing process from OS
           309 MiB allocation reported by mallinfo(arena+hblkhd)
        176381 MiB available memory on the node where the printing process lives
------------------
     ethr =  5.15E-06,  avg # of iterations =  5.5


     -----------------------------------------------
     Non-local corr. energy    =       1.81869843 Ry
     -----------------------------------------------


     total cpu time spent up to now is      285.7 secs

     total energy              =    -940.55045833 Ry
     estimated scf accuracy    <       0.00181330 Ry

     total magnetization       =     4.00 Bohr mag/cell
     absolute magnetization    =     4.13 Bohr mag/cell

     iteration # 19     ecut=   200.00 Ry     beta= 0.70
     Davidson diagonalization with overlap

---- Real-time Memory Report at c_bands before calling an iterative solver
           356 MiB given to the printing process from OS
           309 MiB allocation reported by mallinfo(arena+hblkhd)
        176381 MiB available memory on the node where the printing process lives
------------------
     ethr =  1.81E-06,  avg # of iterations =  8.5


     -----------------------------------------------
     Non-local corr. energy    =       1.81866900 Ry
     -----------------------------------------------


     total cpu time spent up to now is      299.5 secs

     total energy              =    -940.55078106 Ry
     estimated scf accuracy    <       0.00038791 Ry

     total magnetization       =     4.00 Bohr mag/cell
     absolute magnetization    =     4.13 Bohr mag/cell

     iteration # 20     ecut=   200.00 Ry     beta= 0.70
     Davidson diagonalization with overlap

---- Real-time Memory Report at c_bands before calling an iterative solver
           356 MiB given to the printing process from OS
           309 MiB allocation reported by mallinfo(arena+hblkhd)
        176383 MiB available memory on the node where the printing process lives
------------------
     ethr =  3.88E-07,  avg # of iterations =  2.0


     -----------------------------------------------
     Non-local corr. energy    =       1.81862259 Ry
     -----------------------------------------------


     total cpu time spent up to now is      311.5 secs

     total energy              =    -940.55084474 Ry
     estimated scf accuracy    <       0.00020880 Ry

     total magnetization       =     4.00 Bohr mag/cell
     absolute magnetization    =     4.13 Bohr mag/cell

     iteration # 21     ecut=   200.00 Ry     beta= 0.70
     Davidson diagonalization with overlap

---- Real-time Memory Report at c_bands before calling an iterative solver
           356 MiB given to the printing process from OS
           309 MiB allocation reported by mallinfo(arena+hblkhd)
        176374 MiB available memory on the node where the printing process lives
------------------
     ethr =  2.09E-07,  avg # of iterations =  2.0


     -----------------------------------------------
     Non-local corr. energy    =       1.81859136 Ry
     -----------------------------------------------


     total cpu time spent up to now is      322.6 secs

     total energy              =    -940.55087722 Ry
     estimated scf accuracy    <       0.00001539 Ry

     total magnetization       =     4.00 Bohr mag/cell
     absolute magnetization    =     4.13 Bohr mag/cell

     iteration # 22     ecut=   200.00 Ry     beta= 0.70
     Davidson diagonalization with overlap

---- Real-time Memory Report at c_bands before calling an iterative solver
           356 MiB given to the printing process from OS
           309 MiB allocation reported by mallinfo(arena+hblkhd)
        176380 MiB available memory on the node where the printing process lives
------------------
     ethr =  1.54E-08,  avg # of iterations =  2.0


     -----------------------------------------------
     Non-local corr. energy    =       1.81859553 Ry
     -----------------------------------------------


     total cpu time spent up to now is      335.0 secs

     total energy              =    -940.55087890 Ry
     estimated scf accuracy    <       0.00001336 Ry

     total magnetization       =     4.00 Bohr mag/cell
     absolute magnetization    =     4.13 Bohr mag/cell

     iteration # 23     ecut=   200.00 Ry     beta= 0.70
     Davidson diagonalization with overlap

---- Real-time Memory Report at c_bands before calling an iterative solver
           356 MiB given to the printing process from OS
           309 MiB allocation reported by mallinfo(arena+hblkhd)
        176383 MiB available memory on the node where the printing process lives
------------------
     ethr =  1.34E-08,  avg # of iterations =  2.0


     -----------------------------------------------
     Non-local corr. energy    =       1.81860930 Ry
     -----------------------------------------------


     total cpu time spent up to now is      346.2 secs

     total energy              =    -940.55088130 Ry
     estimated scf accuracy    <       0.00000314 Ry

     total magnetization       =     4.00 Bohr mag/cell
     absolute magnetization    =     4.13 Bohr mag/cell

     iteration # 24     ecut=   200.00 Ry     beta= 0.70
     Davidson diagonalization with overlap

---- Real-time Memory Report at c_bands before calling an iterative solver
           356 MiB given to the printing process from OS
           309 MiB allocation reported by mallinfo(arena+hblkhd)
        176383 MiB available memory on the node where the printing process lives
------------------
     ethr =  3.14E-09,  avg # of iterations =  2.0


     -----------------------------------------------
     Non-local corr. energy    =       1.81861325 Ry
     -----------------------------------------------


     total cpu time spent up to now is      357.7 secs

     total energy              =    -940.55088192 Ry
     estimated scf accuracy    <       0.00000119 Ry

     total magnetization       =     4.00 Bohr mag/cell
     absolute magnetization    =     4.13 Bohr mag/cell

     iteration # 25     ecut=   200.00 Ry     beta= 0.70
     Davidson diagonalization with overlap

---- Real-time Memory Report at c_bands before calling an iterative solver
           356 MiB given to the printing process from OS
           309 MiB allocation reported by mallinfo(arena+hblkhd)
        176383 MiB available memory on the node where the printing process lives
------------------
     ethr =  1.19E-09,  avg # of iterations =  2.0


     -----------------------------------------------
     Non-local corr. energy    =       1.81859516 Ry
     -----------------------------------------------


     Magnetic moment per site  (integrated on atomic sphere of radius R)
     atom   1 (R=1.555)  charge= 15.7560  magn=  1.5870
     atom   2 (R=1.555)  charge= 15.7562  magn=  1.5869
     atom   3 (R=0.983)  charge=  1.4005  magn= -0.0012
     atom   4 (R=0.983)  charge=  1.4005  magn= -0.0012
     atom   5 (R=0.983)  charge=  1.4005  magn= -0.0012
     atom   6 (R=0.983)  charge=  1.4005  magn= -0.0012
     atom   7 (R=0.983)  charge=  3.6176  magn=  0.0841
     atom   8 (R=0.983)  charge=  3.6174  magn=  0.0842
     atom   9 (R=0.983)  charge=  3.6178  magn=  0.0841
     atom  10 (R=0.983)  charge=  3.6175  magn=  0.0842
     atom  11 (R=0.983)  charge=  3.6293  magn=  0.0543
     atom  12 (R=0.983)  charge=  3.6294  magn=  0.0543
     atom  13 (R=0.983)  charge=  3.6294  magn=  0.0543
     atom  14 (R=0.983)  charge=  3.6294  magn=  0.0543

     total cpu time spent up to now is      369.4 secs

     End of self-consistent calculation

 ------ SPIN UP ------------


          k = 0.0260 0.0247-0.0397 ( 61190 PWs)   bands (ev):

  -101.3580-101.3571 -62.0793 -62.0790 -62.0527 -62.0515 -61.8239 -61.8226
   -17.6121 -17.4803 -17.0141 -16.9999 -15.9318 -15.8735 -15.5996 -15.5804
    -7.6625  -7.3527  -4.9275  -4.8686  -3.8004  -3.7307  -3.2141  -3.1384
    -2.7506  -2.6254  -2.1236  -1.9030  -1.1526  -1.0368  -0.8786  -0.7126
    -0.5699  -0.4944  -0.2888   0.1707   0.2117   0.3366   0.3887   0.4971
     0.7301   0.7696   0.8061   0.8843   1.1512   1.1734   1.3074   1.3747
     1.4026   1.6123   1.8749   2.0132   5.0086   5.2587   7.3886   7.4151
     7.7270   8.0661   9.2363   9.3999  10.7986  11.2083  11.5570  11.8339
    12.1560

     occupation numbers 
     1.0000   1.0000   1.0000   1.0000   1.0000   1.0000   1.0000   1.0000
     1.0000   1.0000   1.0000   1.0000   1.0000   1.0000   1.0000   1.0000
     1.0000   1.0000   1.0000   1.0000   1.0000   1.0000   1.0000   1.0000
     1.0000   1.0000   1.0000   1.0000   1.0000   1.0000   1.0000   1.0000
     1.0000   1.0000   1.0000   1.0000   1.0000   1.0000   1.0000   1.0000
     1.0000   1.0000   1.0000   1.0000   1.0000   1.0000   1.0000   1.0000
     1.0000   1.0000   1.0000   1.0000   0.0000   0.0000   0.0000   0.0000
     0.0000   0.0000   0.0000   0.0000   0.0000   0.0000   0.0000   0.0000
     0.0000

          k = 0.0260 0.0247 0.0110 ( 61175 PWs)   bands (ev):

  -101.3580-101.3571 -62.0793 -62.0790 -62.0527 -62.0515 -61.8239 -61.8226
   -17.6403 -17.4584 -17.0156 -16.9940 -15.9095 -15.8870 -15.5955 -15.5871
    -7.6318  -7.3921  -4.9326  -4.8784  -3.7901  -3.7333  -3.2361  -3.1312
    -2.7043  -2.6225  -2.1826  -1.9535  -1.3268  -1.0145  -0.9022  -0.6425
    -0.5938  -0.5221  -0.1869   0.2534   0.2858   0.3742   0.4470   0.5852
     0.6823   0.7696   0.7890   0.9108   1.0609   1.1903   1.2910   1.3364
     1.4808   1.6869   1.8105   1.9968   5.0349   5.2132   7.0900   7.5000
     7.6480   8.2504   9.2439   9.4195  10.8710  11.1466  11.5253  11.8383
    12.0932

     occupation numbers 
     1.0000   1.0000   1.0000   1.0000   1.0000   1.0000   1.0000   1.0000
     1.0000   1.0000   1.0000   1.0000   1.0000   1.0000   1.0000   1.0000
     1.0000   1.0000   1.0000   1.0000   1.0000   1.0000   1.0000   1.0000
     1.0000   1.0000   1.0000   1.0000   1.0000   1.0000   1.0000   1.0000
     1.0000   1.0000   1.0000   1.0000   1.0000   1.0000   1.0000   1.0000
     1.0000   1.0000   1.0000   1.0000   1.0000   1.0000   1.0000   1.0000
     1.0000   1.0000   1.0000   1.0000   0.0000   0.0000   0.0000   0.0000
     0.0000   0.0000   0.0000   0.0000   0.0000   0.0000   0.0000   0.0000
     0.0000

          k =-0.0260 0.0247-0.0397 ( 61190 PWs)   bands (ev):

  -101.3580-101.3571 -62.0793 -62.0790 -62.0527 -62.0515 -61.8239 -61.8226
   -17.6120 -17.4803 -17.0135 -17.0006 -15.9318 -15.8735 -15.5997 -15.5803
    -7.6625  -7.3527  -4.9272  -4.8689  -3.8003  -3.7307  -3.2137  -3.1389
    -2.7510  -2.6249  -2.1237  -1.9030  -1.1527  -1.0365  -0.8787  -0.7126
    -0.5703  -0.4942  -0.2893   0.1710   0.2113   0.3366   0.3887   0.4979
     0.7313   0.7696   0.8058   0.8838   1.1511   1.1730   1.3074   1.3744
     1.4022   1.6130   1.8747   2.0134   5.0086   5.2588   7.3887   7.4150
     7.7270   8.0662   9.2365   9.3997  10.7985  11.2082  11.5572  11.8338
    12.1561

     occupation numbers 
     1.0000   1.0000   1.0000   1.0000   1.0000   1.0000   1.0000   1.0000
     1.0000   1.0000   1.0000   1.0000   1.0000   1.0000   1.0000   1.0000
     1.0000   1.0000   1.0000   1.0000   1.0000   1.0000   1.0000   1.0000
     1.0000   1.0000   1.0000   1.0000   1.0000   1.0000   1.0000   1.0000
     1.0000   1.0000   1.0000   1.0000   1.0000   1.0000   1.0000   1.0000
     1.0000   1.0000   1.0000   1.0000   1.0000   1.0000   1.0000   1.0000
     1.0000   1.0000   1.0000   1.0000   0.0000   0.0000   0.0000   0.0000
     0.0000   0.0000   0.0000   0.0000   0.0000   0.0000   0.0000   0.0000
     0.0000

          k =-0.0260 0.0247 0.0110 ( 61175 PWs)   bands (ev):

  -101.3580-101.3571 -62.0793 -62.0790 -62.0527 -62.0515 -61.8239 -61.8226
   -17.6403 -17.4584 -17.0161 -16.9936 -15.9096 -15.8869 -15.5952 -15.5873
    -7.6318  -7.3921  -4.9327  -4.8783  -3.7901  -3.7333  -3.2363  -3.1310
    -2.7038  -2.6231  -2.1824  -1.9537  -1.3267  -1.0149  -0.9019  -0.6427
    -0.5939  -0.5216  -0.1869   0.2536   0.2855   0.3746   0.4461   0.5854
     0.6820   0.7701   0.7882   0.9111   1.0611   1.1903   1.2906   1.3368
     1.4806   1.6874   1.8107   1.9963   5.0350   5.2131   7.0900   7.5000
     7.6480   8.2504   9.2436   9.4197  10.8709  11.1467  11.5253  11.8382
    12.0935

     occupation numbers 
     1.0000   1.0000   1.0000   1.0000   1.0000   1.0000   1.0000   1.0000
     1.0000   1.0000   1.0000   1.0000   1.0000   1.0000   1.0000   1.0000
     1.0000   1.0000   1.0000   1.0000   1.0000   1.0000   1.0000   1.0000
     1.0000   1.0000   1.0000   1.0000   1.0000   1.0000   1.0000   1.0000
     1.0000   1.0000   1.0000   1.0000   1.0000   1.0000   1.0000   1.0000
     1.0000   1.0000   1.0000   1.0000   1.0000   1.0000   1.0000   1.0000
     1.0000   1.0000   1.0000   1.0000   0.0000   0.0000   0.0000   0.0000
     0.0000   0.0000   0.0000   0.0000   0.0000   0.0000   0.0000   0.0000
     0.0000

 ------ SPIN DOWN ----------


          k = 0.0260 0.0247-0.0397 ( 61190 PWs)   bands (ev):

  -100.0093-100.0083 -60.2072 -60.2063 -60.1947 -60.1938 -60.0902 -60.0893
   -17.4985 -17.3633 -16.8865 -16.8717 -15.7861 -15.7242 -15.4452 -15.4282
    -7.6012  -7.2887  -4.8089  -4.7451  -3.6487  -3.5950  -3.1002  -3.0211
    -2.6433  -2.4749  -2.0140  -1.8166  -1.0669  -0.6512  -0.2862  -0.1214
     0.1611   0.1875   0.5057   0.5943   0.7853   0.8795   0.9778   1.1211
     1.2343   1.3843   1.7149   1.7997   1.8781   1.9314   1.9792   2.0585
     3.1374   3.3834   3.6506   3.7953   5.0577   5.3000   7.4178   7.6243
     7.7781   8.3025   9.3252   9.5229  10.8864  11.3080  11.6440  11.9698
    12.2606

     occupation numbers 
     1.0000   1.0000   1.0000   1.0000   1.0000   1.0000   1.0000   1.0000
     1.0000   1.0000   1.0000   1.0000   1.0000   1.0000   1.0000   1.0000
     1.0000   1.0000   1.0000   1.0000   1.0000   1.0000   1.0000   1.0000
     1.0000   1.0000   1.0000   1.0000   1.0000   1.0000   1.0000   1.0000
     1.0000   1.0000   1.0000   1.0000   1.0000   1.0000   1.0000   1.0000
     1.0000   1.0000   1.0000   1.0000   1.0000   1.0000   1.0000   1.0000
     0.0000   0.0000   0.0000   0.0000   0.0000   0.0000   0.0000   0.0000
     0.0000   0.0000   0.0000   0.0000   0.0000   0.0000   0.0000   0.0000
     0.0000

          k = 0.0260 0.0247 0.0110 ( 61175 PWs)   bands (ev):

  -100.0093-100.0083 -60.2072 -60.2063 -60.1947 -60.1938 -60.0902 -60.0893
   -17.5265 -17.3416 -16.8877 -16.8661 -15.7614 -15.7401 -15.4429 -15.4328
    -7.5690  -7.3296  -4.8130  -4.7560  -3.6536  -3.5777  -3.1321  -3.0146
    -2.5842  -2.4778  -2.0983  -1.8804  -1.1732  -0.5657  -0.2314  -0.1597
     0.1438   0.2404   0.6660   0.7043   0.7528   0.8682   1.0407   1.0808
     1.2122   1.3488   1.7267   1.8104   1.8952   1.9229   1.9775   2.0215
     3.0993   3.4471   3.6524   3.7979   5.0767   5.2517   7.3085   7.5237
     7.6580   8.5113   9.3311   9.5406  10.9737  11.2671  11.6105  11.9363
    12.2345

     occupation numbers 
     1.0000   1.0000   1.0000   1.0000   1.0000   1.0000   1.0000   1.0000
     1.0000   1.0000   1.0000   1.0000   1.0000   1.0000   1.0000   1.0000
     1.0000   1.0000   1.0000   1.0000   1.0000   1.0000   1.0000   1.0000
     1.0000   1.0000   1.0000   1.0000   1.0000   1.0000   1.0000   1.0000
     1.0000   1.0000   1.0000   1.0000   1.0000   1.0000   1.0000   1.0000
     1.0000   1.0000   1.0000   1.0000   1.0000   1.0000   1.0000   1.0000
     0.0000   0.0000   0.0000   0.0000   0.0000   0.0000   0.0000   0.0000
     0.0000   0.0000   0.0000   0.0000   0.0000   0.0000   0.0000   0.0000
     0.0000

          k =-0.0260 0.0247-0.0397 ( 61190 PWs)   bands (ev):

  -100.0093-100.0083 -60.2072 -60.2063 -60.1947 -60.1938 -60.0902 -60.0893
   -17.4984 -17.3634 -16.8859 -16.8723 -15.7861 -15.7242 -15.4453 -15.4281
    -7.6012  -7.2887  -4.8086  -4.7454  -3.6486  -3.5950  -3.0999  -3.0215
    -2.6436  -2.4744  -2.0141  -1.8166  -1.0671  -0.6511  -0.2865  -0.1213
     0.1611   0.1876   0.5055   0.5945   0.7850   0.8798   0.9778   1.1212
     1.2343   1.3843   1.7145   1.8001   1.8778   1.9316   1.9791   2.0585
     3.1374   3.3832   3.6510   3.7951   5.0577   5.3000   7.4178   7.6243
     7.7780   8.3027   9.3254   9.5227  10.8864  11.3080  11.6441  11.9697
    12.2608

     occupation numbers 
     1.0000   1.0000   1.0000   1.0000   1.0000   1.0000   1.0000   1.0000
     1.0000   1.0000   1.0000   1.0000   1.0000   1.0000   1.0000   1.0000
     1.0000   1.0000   1.0000   1.0000   1.0000   1.0000   1.0000   1.0000
     1.0000   1.0000   1.0000   1.0000   1.0000   1.0000   1.0000   1.0000
     1.0000   1.0000   1.0000   1.0000   1.0000   1.0000   1.0000   1.0000
     1.0000   1.0000   1.0000   1.0000   1.0000   1.0000   1.0000   1.0000
     0.0000   0.0000   0.0000   0.0000   0.0000   0.0000   0.0000   0.0000
     0.0000   0.0000   0.0000   0.0000   0.0000   0.0000   0.0000   0.0000
     0.0000

          k =-0.0260 0.0247 0.0110 ( 61175 PWs)   bands (ev):

  -100.0093-100.0083 -60.2072 -60.2063 -60.1947 -60.1938 -60.0902 -60.0893
   -17.5265 -17.3416 -16.8881 -16.8657 -15.7615 -15.7400 -15.4427 -15.4330
    -7.5690  -7.3296  -4.8131  -4.7559  -3.6535  -3.5777  -3.1322  -3.0144
    -2.5838  -2.4784  -2.0981  -1.8805  -1.1730  -0.5659  -0.2313  -0.1598
     0.1436   0.2406   0.6664   0.7043   0.7530   0.8677   1.0408   1.0807
     1.2122   1.3487   1.7265   1.8105   1.8954   1.9226   1.9775   2.0216
     3.0993   3.4473   3.6521   3.7979   5.0768   5.2516   7.3086   7.5237
     7.6579   8.5113   9.3308   9.5408  10.9736  11.2672  11.6104  11.9362
    12.2347

     occupation numbers 
     1.0000   1.0000   1.0000   1.0000   1.0000   1.0000   1.0000   1.0000
     1.0000   1.0000   1.0000   1.0000   1.0000   1.0000   1.0000   1.0000
     1.0000   1.0000   1.0000   1.0000   1.0000   1.0000   1.0000   1.0000
     1.0000   1.0000   1.0000   1.0000   1.0000   1.0000   1.0000   1.0000
     1.0000   1.0000   1.0000   1.0000   1.0000   1.0000   1.0000   1.0000
     1.0000   1.0000   1.0000   1.0000   1.0000   1.0000   1.0000   1.0000
     0.0000   0.0000   0.0000   0.0000   0.0000   0.0000   0.0000   0.0000
     0.0000   0.0000   0.0000   0.0000   0.0000   0.0000   0.0000   0.0000
     0.0000

     the Fermi energy is     2.5826 ev

!    total energy              =    -940.55088195 Ry
     estimated scf accuracy    <       0.00000065 Ry
     smearing contrib. (-TS)   =      -0.00000000 Ry
     internal energy E=F+TS    =    -940.55088195 Ry

     The total energy is F=E-TS. E is the sum of the following terms:
     one-electron contribution =    -659.31039354 Ry
     hartree contribution      =     362.62353484 Ry
     xc contribution           =    -160.10148945 Ry
     ewald contribution        =    -483.76253380 Ry

     total magnetization       =     4.00 Bohr mag/cell
     absolute magnetization    =     4.13 Bohr mag/cell

     convergence has been achieved in  25 iterations


     -----------------------------------------------
     Non-local corr. energy    =       1.81859516 Ry
     -----------------------------------------------


     Forces acting on atoms (cartesian axes, Ry/au):

     atom    1 type  1   force =    -0.00000024   -0.00003640   -0.00002497
     atom    2 type  1   force =     0.00001379    0.00001998    0.00004017
     atom    3 type  2   force =     0.06631833    0.02603723    0.04869538
     atom    4 type  2   force =     0.06630971   -0.02596359   -0.04869907
     atom    5 type  2   force =    -0.06631953   -0.02600434   -0.04870202
     atom    6 type  2   force =    -0.06631252    0.02594599    0.04869843
     atom    7 type  3   force =     0.07059162   -0.15448663    0.07103554
     atom    8 type  3   force =     0.07055493    0.15446790   -0.07101881
     atom    9 type  3   force =    -0.07059830    0.15451192   -0.07104751
     atom   10 type  3   force =    -0.07055872   -0.15447630    0.07102424
     atom   11 type  3   force =    -0.09579029   -0.16830014   -0.04685416
     atom   12 type  3   force =    -0.09581146    0.16826785    0.04685754
     atom   13 type  3   force =     0.09579021    0.16827313    0.04685294
     atom   14 type  3   force =     0.09581247   -0.16825659   -0.04685770
     The non-local contrib.  to forces
     atom    1 type  1   force =    -0.00000306    0.00002872    0.00001757
     atom    2 type  1   force =    -0.00000456   -0.00000854   -0.00003275
     atom    3 type  2   force =     0.21339975    0.00879256    0.15653266
     atom    4 type  2   force =     0.21339538   -0.00892344   -0.15652025
     atom    5 type  2   force =    -0.21336873   -0.00886045   -0.15651221
     atom    6 type  2   force =    -0.21338112    0.00894851    0.15650466
     atom    7 type  3   force =     0.65615287   -1.42767133    0.65643697
     atom    8 type  3   force =     0.65614719    1.42760238   -0.65649239
     atom    9 type  3   force =    -0.65615640    1.42767939   -0.65644497
     atom   10 type  3   force =    -0.65615140   -1.42759837    0.65649847
     atom   11 type  3   force =    -1.03254765   -1.44167207   -0.52445701
     atom   12 type  3   force =    -1.03259712    1.44162615    0.52443378
     atom   13 type  3   force =     1.03255345    1.44164136    0.52446562
     atom   14 type  3   force =     1.03260209   -1.44162235   -0.52443720
     The ionic contribution  to forces
     atom    1 type  1   force =    -0.00000000    0.00000000   -0.00000000
     atom    2 type  1   force =     0.00000000    0.00000000   -0.00000000
     atom    3 type  2   force =    -0.91886624   -0.12829752   -0.82087757
     atom    4 type  2   force =    -0.91886624    0.12829752    0.82087757
     atom    5 type  2   force =     0.91886624    0.12829752    0.82087757
     atom    6 type  2   force =     0.91886624   -0.12829752   -0.82087757
     atom    7 type  3   force =    -2.59120354    1.53120084   -1.80163994
     atom    8 type  3   force =    -2.59120354   -1.53120084    1.80163994
     atom    9 type  3   force =     2.59120354   -1.53120084    1.80163994
     atom   10 type  3   force =     2.59120354    1.53120084   -1.80163994
     atom   11 type  3   force =     6.73502547    1.05206559    3.22027446
     atom   12 type  3   force =     6.73502547   -1.05206559   -3.22027446
     atom   13 type  3   force =    -6.73502547   -1.05206559   -3.22027446
     atom   14 type  3   force =    -6.73502547    1.05206559    3.22027446
     The local contribution  to forces
     atom    1 type  1   force =    -0.00003794    0.00041980    0.00020161
     atom    2 type  1   force =    -0.00010855   -0.00018696   -0.00031755
     atom    3 type  2   force =     0.77860739    0.14403384    0.71814850
     atom    4 type  2   force =     0.77840726   -0.14428312   -0.71797232
     atom    5 type  2   force =    -0.77859585   -0.14428234   -0.71809055
     atom    6 type  2   force =    -0.77839230    0.14438802    0.71797861
     atom    7 type  3   force =     2.02775157   -0.30665805    1.23837327
     atom    8 type  3   force =     2.02798658    0.30676268   -1.23856004
     atom    9 type  3   force =    -2.02773355    0.30652115   -1.23834296
     atom   10 type  3   force =    -2.02796814   -0.30662090    1.23852645
     atom   11 type  3   force =    -5.83443773    0.17325386   -2.76132680
     atom   12 type  3   force =    -5.83458940   -0.17350972    2.76144979
     atom   13 type  3   force =     5.83443785   -0.17331870    2.76141186
     atom   14 type  3   force =     5.83458697    0.17350071   -2.76150334
     The core correction contribution to forces
     atom    1 type  1   force =    -0.00000007   -0.00000003   -0.00000010
     atom    2 type  1   force =    -0.00000016   -0.00000016    0.00000011
     atom    3 type  2   force =    -0.00679172    0.00107636   -0.00504298
     atom    4 type  2   force =    -0.00679186   -0.00106692    0.00504222
     atom    5 type  2   force =     0.00678991   -0.00107184    0.00504191
     atom    6 type  2   force =     0.00679100    0.00106493   -0.00504116
     atom    7 type  3   force =    -0.02215326    0.04835516   -0.02213851
     atom    8 type  3   force =    -0.02215315   -0.04835375    0.02214149
     atom    9 type  3   force =     0.02215255   -0.04835383    0.02213817
     atom   10 type  3   force =     0.02215290    0.04835333   -0.02214151
     atom   11 type  3   force =     0.03622221    0.04760181    0.01876750
     atom   12 type  3   force =     0.03622369   -0.04760023   -0.01876566
     atom   13 type  3   force =    -0.03622210   -0.04760054   -0.01876721
     atom   14 type  3   force =    -0.03622392    0.04760018    0.01876548
     The Hubbard contrib.    to forces
     atom    1 type  1   force =     0.00000000    0.00000000    0.00000000
     atom    2 type  1   force =     0.00000000    0.00000000    0.00000000
     atom    3 type  2   force =     0.00000000    0.00000000    0.00000000
     atom    4 type  2   force =     0.00000000    0.00000000    0.00000000
     atom    5 type  2   force =     0.00000000    0.00000000    0.00000000
     atom    6 type  2   force =     0.00000000    0.00000000    0.00000000
     atom    7 type  3   force =     0.00000000    0.00000000    0.00000000
     atom    8 type  3   force =     0.00000000    0.00000000    0.00000000
     atom    9 type  3   force =     0.00000000    0.00000000    0.00000000
     atom   10 type  3   force =     0.00000000    0.00000000    0.00000000
     atom   11 type  3   force =     0.00000000    0.00000000    0.00000000
     atom   12 type  3   force =     0.00000000    0.00000000    0.00000000
     atom   13 type  3   force =     0.00000000    0.00000000    0.00000000
     atom   14 type  3   force =     0.00000000    0.00000000    0.00000000
     The SCF correction term to forces
     atom    1 type  1   force =     0.00004073   -0.00048585   -0.00024331
     atom    2 type  1   force =     0.00012695    0.00021469    0.00039109
     atom    3 type  2   force =    -0.00003095    0.00043103   -0.00006448
     atom    4 type  2   force =     0.00016508    0.00001140   -0.00012554
     atom    5 type  2   force =    -0.00001121   -0.00008819   -0.00001800
     atom    6 type  2   force =    -0.00019644   -0.00015892    0.00013464
     atom    7 type  3   force =     0.00004388    0.00028579    0.00000449
     atom    8 type  3   force =    -0.00022224   -0.00034353    0.00025293
     atom    9 type  3   force =    -0.00006454   -0.00013491   -0.00003696
     atom   10 type  3   force =     0.00020427    0.00018784   -0.00021848
     atom   11 type  3   force =    -0.00005268    0.00044971   -0.00011157
     atom   12 type  3   force =     0.00012581   -0.00018371    0.00001482
     atom   13 type  3   force =     0.00004638   -0.00038436    0.00001787
     atom   14 type  3   force =    -0.00012731    0.00019831    0.00004365

     Total force =     0.569303     Total SCF correction =     0.001332


     Computing stress (Cartesian axis) and pressure



     -----------------------------------------------
     Non-local corr. energy    =       1.81859516 Ry
     -----------------------------------------------

          total   stress  (Ry/bohr**3)                   (kbar)     P=     -268.10
  -0.00120438  -0.00000003  -0.00000009         -177.17       -0.00       -0.01
  -0.00000003  -0.00344038   0.00028949           -0.00     -506.10       42.59
  -0.00000009   0.00028949  -0.00082275           -0.01       42.59     -121.03

     kinetic stress (kbar)  35939.67     -0.02     -0.00
                               -0.02  34064.92    157.61
                               -0.00    157.61  35976.13

     local   stress (kbar) -12746.60     -0.07     -0.24
                               -0.07 -40210.23   2118.81
                               -0.24   2118.81  -9917.77

     nonloc. stress (kbar)  -4736.86     -0.00      0.00
                               -0.00  -4374.23    -27.51
                                0.00    -27.51  -4701.90

     hartree stress (kbar)  10778.41      0.09      0.23
                                0.09  20967.11   -673.83
                                0.23   -673.83   9893.57

     exc-cor stress (kbar)  -2095.64      0.00     -0.00
                                0.00  -2025.49     -9.73
                               -0.00     -9.73  -2114.97

     corecor stress (kbar)  -3393.19     -0.00     -0.00
                               -0.00  -3380.38     -0.81
                               -0.00     -0.81  -3389.07

     ewald   stress (kbar) -23999.12     -0.00     -0.00
                               -0.00  -5603.20  -1524.24
                               -0.00  -1524.24 -25946.83

     hubbard stress (kbar)      0.00      0.00      0.00
                                0.00      0.00      0.00
                                0.00      0.00      0.00

     DFT-D   stress (kbar)      0.00      0.00      0.00
                                0.00      0.00      0.00
                                0.00      0.00      0.00

     XDM     stress (kbar)      0.00      0.00      0.00
                                0.00      0.00      0.00
                                0.00      0.00      0.00

     dft-nl  stress (kbar)     76.15      0.00      0.00
                                0.00     55.40      2.28
                                0.00      2.28     79.82

     TS-vdW  stress (kbar)      0.00      0.00      0.00
                                0.00      0.00      0.00
                                0.00      0.00      0.00


                                0.00      0.00      0.00
                                0.00      0.00      0.00


                                0.00      0.00      0.00


     Writing all to output data dir ./calc.save/

     init_run     :     39.68s CPU     39.98s WALL (       1 calls)
     electrons    :    318.53s CPU    329.41s WALL (       1 calls)
     forces       :     17.00s CPU     17.09s WALL (       1 calls)
     stress       :     45.86s CPU     46.04s WALL (       1 calls)

     Called by init_run:
     wfcinit      :      3.84s CPU      3.96s WALL (       1 calls)
     wfcinit:wfcr :      3.36s CPU      3.48s WALL (       8 calls)
     potinit      :     20.96s CPU     21.08s WALL (       1 calls)
     hinit0       :     14.75s CPU     14.79s WALL (       1 calls)

     Called by electrons:
     c_bands      :    249.41s CPU    257.86s WALL (      25 calls)
     sum_band     :     38.56s CPU     39.91s WALL (      25 calls)
     v_of_rho     :     42.90s CPU     43.98s WALL (      26 calls)
     v_h          :      0.16s CPU      0.17s WALL (      26 calls)
     v_xc         :     45.06s CPU     46.21s WALL (      28 calls)
     mix_rho      :      1.21s CPU      1.23s WALL (      25 calls)
     vdW_kernel   :     12.54s CPU     12.57s WALL (       1 calls)

     Called by c_bands:
     init_us_2    :      3.32s CPU      3.34s WALL (     424 calls)
     init_us_2:cp :      3.32s CPU      3.34s WALL (     424 calls)
     cegterg      :    236.51s CPU    244.92s WALL (     200 calls)

     Called by sum_band:
     sum_band:wei :      0.01s CPU      0.01s WALL (      25 calls)
     sum_band:loo :     38.06s CPU     39.37s WALL (      25 calls)
     sum_band:buf :      0.41s CPU      0.41s WALL (     200 calls)
     sum_band:ini :      1.57s CPU      1.57s WALL (     200 calls)

     Called by *egterg:
     cdiaghg      :      3.14s CPU      3.22s WALL (     870 calls)
     cegterg:over :     11.48s CPU     11.55s WALL (     670 calls)
     cegterg:upda :      8.39s CPU      8.44s WALL (     670 calls)
     cegterg:last :     12.13s CPU     12.19s WALL (     449 calls)
     cdiaghg:chol :      0.20s CPU      0.20s WALL (     870 calls)
     cdiaghg:inve :      0.05s CPU      0.05s WALL (     870 calls)
     cdiaghg:para :      0.43s CPU      0.46s WALL (    1740 calls)
     h_psi        :    199.07s CPU    207.32s WALL (     878 calls)
     g_psi        :      1.12s CPU      1.13s WALL (     670 calls)

     Called by h_psi:
     h_psi:calbec :     12.32s CPU     12.45s WALL (     878 calls)
     vloc_psi     :    173.72s CPU    181.80s WALL (     878 calls)
     add_vuspsi   :     12.00s CPU     12.04s WALL (     878 calls)

     General routines
     calbec       :     13.23s CPU     13.36s WALL (     918 calls)
     fft          :     10.27s CPU     11.34s WALL (    2378 calls)
     ffts         :      0.20s CPU      0.22s WALL (      50 calls)
     fftw         :    184.88s CPU    193.02s WALL (   80228 calls)

     Parallel routines

     PWSCF        :   7m 1.33s CPU   7m13.35s WALL


   This run was terminated on:  16:11:35  25Oct2022            

=------------------------------------------------------------------------------=
   JOB DONE.
=------------------------------------------------------------------------------=
