
     Program PWSCF v.7.0 starts on 25Oct2022 at 15:41:55 

     This program is part of the open-source Quantum ESPRESSO suite
     for quantum simulation of materials; please cite
         "P. Giannozzi et al., J. Phys.:Condens. Matter 21 395502 (2009);
         "P. Giannozzi et al., J. Phys.:Condens. Matter 29 465901 (2017);
         "P. Giannozzi et al., J. Chem. Phys. 152 154105 (2020);
          URL http://www.quantum-espresso.org", 
     in publications or presentations arising from this work. More details at
     http://www.quantum-espresso.org/quote

     Parallel version (MPI), running on     8 processors

     MPI processes distributed on     1 nodes
     R & G space division:  proc/nbgrp/npool/nimage =       8
     171069 MiB available memory on the printing compute node when the environment starts

     Reading input from pw.inp

     Current dimensions of program PWSCF are:
     Max number of different atomic species (ntypx) = 10
     Max number of k-points (npk) =  40000
     Max angular momentum in pseudopotentials (lmaxx) =  4
     Message from routine volume:
     strange lattice parameter
     Message from routine cell_base_init:
     DEPRECATED: use true lattice parameter, not A to a.u. conversion factor

     IMPORTANT: XC functional enforced from input :
     Exchange-correlation= VDW-DF
                           (   1   4   4   0   1   0   0)
     Any further DFT definition will be discarded
     Please, verify this is what you really want


     Subspace diagonalization in iterative solution of the eigenvalue problem:
     one sub-group per band group will be used
     scalapack distributed-memory algorithm (size of sub-group:  2*  2 procs)


     Parallelization info
     --------------------
     sticks:   dense  smooth     PW     G-vecs:    dense   smooth      PW
     Min         559     559    147                28234    28234    3839
     Max         561     561    148                28236    28236    3841
     Sum        4477    4477   1179               225875   225875   30717

     Using Slab Decomposition



     bravais-lattice index     =            0
     lattice parameter (alat)  =       0.8500  a.u.
     unit-cell volume          =     591.1003 (a.u.)^3
     number of atoms/cell      =           14
     number of atomic types    =            3
     number of electrons       =       100.00
     number of Kohn-Sham states=           65
     kinetic-energy cutoff     =     200.0000  Ry
     charge density cutoff     =     800.0000  Ry
     scf convergence threshold =      1.0E-06
     mixing beta               =       0.7000
     number of iterations used =            8  plain     mixing
     Exchange-correlation= VDW-DF
                           (   1   4   4   0   1   0   0)

     celldm(1)=   0.850000  celldm(2)=   0.000000  celldm(3)=   0.000000
     celldm(4)=   0.000000  celldm(5)=   0.000000  celldm(6)=   0.000000

     crystal axes: (cart. coord. in units of alat)
               a(1) = (   0.000000  10.137047   0.000000 )  
               a(2) = (   9.612603   0.000000   0.000000 )  
               a(3) = (   0.000000  -5.745581  -9.877611 )  

     reciprocal axes: (cart. coord. in units 2 pi/alat)
               b(1) = (  0.000000  0.098648 -0.057381 )  
               b(2) = (  0.104030 -0.000000  0.000000 )  
               b(3) = (  0.000000  0.000000 -0.101239 )  


     PseudoPot. # 1 for Ni read from file:
     ./28_Ni_18_1.7_2.2_pbe_n_v1.0.upf
     MD5 check sum: 081853746d39b5abdc129692a5e93361
     Pseudo is Norm-conserving + core correction, Zval = 18.0
     Generated using ONCVPSP code by D. R. Hamann
     Using radial grid of 1370 points,  6 beta functions with: 
                l(1) =   0
                l(2) =   0
                l(3) =   1
                l(4) =   1
                l(5) =   2
                l(6) =   2

     PseudoPot. # 2 for C  read from file:
     ./06_C_4_1.2_1.2_pbe_n_v1.0.upf
     MD5 check sum: 7e0e17a2517474b8bea671dc4b65026c
     Pseudo is Norm-conserving + core correction, Zval =  4.0
     Generated using ONCVPSP code by D. R. Hamann
     Using radial grid of 1246 points,  4 beta functions with: 
                l(1) =   0
                l(2) =   0
                l(3) =   1
                l(4) =   1

     PseudoPot. # 3 for O  read from file:
     ./08_O_6_1.2_1.4_pbe_n_v1.0.upf
     MD5 check sum: a8b7f44dbbd6106bf79c6036dc5c6a43
     Pseudo is Norm-conserving + core correction, Zval =  6.0
     Generated using ONCVPSP code by D. R. Hamann
     Using radial grid of  934 points,  5 beta functions with: 
                l(1) =   0
                l(2) =   0
                l(3) =   1
                l(4) =   1
                l(5) =   2

     atomic species   valence    mass     pseudopotential
        Ni            18.00    59.00000     Ni( 1.00)
        C              4.00    12.00000     C ( 1.00)
        O              6.00    16.00000     O ( 1.00)

     Starting magnetic structure 
     atomic species   magnetization
        Ni           1.000
        C            0.000
        O            0.000

     No symmetry found


                                    s                        frac. trans.

      isym =  1     identity                                     

 cryst.   s( 1) = (     1          0          0      )
                  (     0          1          0      )
                  (     0          0          1      )

 cart.    s( 1) = (  1.0000000  0.0000000  0.0000000 )
                  (  0.0000000  1.0000000  0.0000000 )
                  (  0.0000000  0.0000000  1.0000000 )


   Cartesian axes

     site n.     atom                  positions (alat units)
         1           Ni  tau(   1) = (   4.8063017  -2.8727903  -4.9388055  )
         2           Ni  tau(   2) = (   0.0000000   0.0000000   0.0000000  )
         3           C   tau(   3) = (   5.9644954   2.2506991  -4.0580090  )
         4           C   tau(   4) = (   1.1581937   5.0135579  -0.8807964  )
         5           C   tau(   5) = (   3.6481079   2.1407676  -5.8196019  )
         6           C   tau(   6) = (   8.4544096  -0.6220912  -8.9968145  )
         7           O   tau(   7) = (   2.8122056   4.2227277  -6.7025319  )
         8           O   tau(   8) = (   7.6185072  -2.7040513  -8.1138845  )
         9           O   tau(   9) = (   6.8003978   0.1687390  -3.1750790  )
        10           O   tau(  10) = (   1.9940961   7.0955180  -1.7637265  )
        11           O   tau(  11) = (   6.8795095   4.4078477  -3.6179615  )
        12           O   tau(  12) = (   2.0732078   2.8564094  -1.3208440  )
        13           O   tau(  13) = (   2.7330938  -0.0163809  -6.2596495  )
        14           O   tau(  14) = (   7.5393955   1.5350574  -8.5567669  )

   Crystallographic axes

     site n.     atom                  positions (cryst. coord.)
         1           Ni  tau(   1) = ( -0.0000000  0.5000000  0.5000000  )
         2           Ni  tau(   2) = (  0.0000000  0.0000000  0.0000000  )
         3           C   tau(   3) = (  0.4548810  0.6204870  0.4108290  )
         4           C   tau(   4) = (  0.5451190  0.1204870  0.0891710  )
         5           C   tau(   5) = (  0.5451190  0.3795130  0.5891710  )
         6           C   tau(   6) = (  0.4548810  0.8795130  0.9108290  )
         7           O   tau(   7) = (  0.8011640  0.2925540  0.6785580  )
         8           O   tau(   8) = (  0.1988360  0.7925540  0.8214420  )
         9           O   tau(   9) = (  0.1988360  0.7074460  0.3214420  )
        10           O   tau(  10) = (  0.8011640  0.2074460  0.1785580  )
        11           O   tau(  11) = (  0.6424290  0.7156760  0.3662790  )
        12           O   tau(  12) = (  0.3575710  0.2156760  0.1337210  )
        13           O   tau(  13) = (  0.3575710  0.2843240  0.6337210  )
        14           O   tau(  14) = (  0.6424290  0.7843240  0.8662790  )

     number of k points=     4  Fermi-Dirac smearing, width (Ry)=  0.0020
                       cart. coord. in units 2pi/alat
        k(    1) = (   0.0260075   0.0246620  -0.0396551), wk =   0.2500000
        k(    2) = (   0.0260075   0.0246620   0.0109644), wk =   0.2500000
        k(    3) = (  -0.0260075   0.0246620  -0.0396551), wk =   0.2500000
        k(    4) = (  -0.0260075   0.0246620   0.0109644), wk =   0.2500000

                       cryst. coord.
        k(    1) = (   0.2500000   0.2500000   0.2500000), wk =   0.2500000
        k(    2) = (   0.2500000   0.2500000  -0.2500000), wk =   0.2500000
        k(    3) = (   0.2500000  -0.2500000   0.2500000), wk =   0.2500000
        k(    4) = (   0.2500000  -0.2500000  -0.2500000), wk =   0.2500000

     Dense  grid:   225875 G-vectors     FFT dimensions: (  80,  75,  90)

     Dynamical RAM for                 wfc:       3.50 MB

     Dynamical RAM for     wfc (w. buffer):      31.50 MB

     Dynamical RAM for           str. fact:       1.29 MB

     Dynamical RAM for           local pot:       0.00 MB

     Dynamical RAM for          nlocal pot:       9.26 MB

     Dynamical RAM for                qrad:       6.81 MB

     Dynamical RAM for          rho,v,vnew:       5.88 MB

     Dynamical RAM for               rhoin:       1.96 MB

     Dynamical RAM for            rho*nmix:      13.79 MB

     Dynamical RAM for           G-vectors:       1.83 MB

     Dynamical RAM for          h,s,v(r/c):       0.19 MB

     Dynamical RAM for          <psi|beta>:       0.17 MB

     Dynamical RAM for                 psi:       7.00 MB

     Dynamical RAM for                hpsi:       7.00 MB

     Dynamical RAM for      wfcinit/wfcrot:       7.10 MB

     Estimated static dynamical RAM per process >      63.55 MB

     Estimated max dynamical RAM per process >      91.70 MB

     Estimated total dynamical RAM >     733.63 MB
     Generating pointlists ...
     new r_m :   1.5545 (alat units)  1.3213 (a.u.) for type    1
     new r_m :   0.9835 (alat units)  0.8359 (a.u.) for type    2
     new r_m :   0.9835 (alat units)  0.8359 (a.u.) for type    3

     Initial potential from superposition of free atoms

     starting charge      99.9993, renormalised to     100.0000


     %%%%%%%%%%%%%%%%%%%%%%%%%%%%%%%%%%%%%%%%%%%%%%%%%%%%%%%%%%%%%%%%%%%%%%%%
     %                                                                      %
     % You are using vdW-DF, which was implemented by the Thonhauser group. %
     % Please cite the following two papers that made this development      %
     % possible and the two reviews that describe the various versions:     %
     %                                                                      %
     %   T. Thonhauser et al., PRL 115, 136402 (2015).                      %
     %   T. Thonhauser et al., PRB 76, 125112 (2007).                       %
     %   K. Berland et al., Rep. Prog. Phys. 78, 066501 (2015).             %
     %   D.C. Langreth et al., J. Phys.: Condens. Matter 21, 084203 (2009). %
     %                                                                      %
     %                                                                      %
     % If you are calculating the stress with vdW-DF, please also cite:     %
     %                                                                      %
     %   R. Sabatini et al., J. Phys.: Condens. Matter 24, 424209 (2012).   %
     %                                                                      %
     %%%%%%%%%%%%%%%%%%%%%%%%%%%%%%%%%%%%%%%%%%%%%%%%%%%%%%%%%%%%%%%%%%%%%%%%


     Carrying out vdW-DF run using the following parameters:
     Nqs    =  20  Npoints =  1024  r_max =  100.000
     q_mesh =  0.00001000  0.04494208  0.09755937  0.15916263
               0.23128650  0.31572767  0.41458969  0.53033537
               0.66584808  0.82450364  1.01025438  1.22772762
               1.48234092  1.78043706  2.12944203  2.53805004
               3.01644009  3.57652955  4.23227104  5.00000000


     -----------------------------------------------
     Non-local corr. energy    =       1.21730354 Ry
     -----------------------------------------------

     Starting wfcs are random

     total cpu time spent up to now is       25.2 secs

     per-process dynamical memory:   105.6 Mb

     Self-consistent Calculation

     iteration #  1     ecut=   200.00 Ry     beta= 0.70
     Davidson diagonalization with overlap

---- Real-time Memory Report at c_bands before calling an iterative solver
           147 MiB given to the printing process from OS
           103 MiB allocation reported by mallinfo(arena+hblkhd)
        170240 MiB available memory on the node where the printing process lives
------------------
     ethr =  1.00E-02,  avg # of iterations = 12.9


     -----------------------------------------------
     Non-local corr. energy    =       1.45007208 Ry
     -----------------------------------------------


     total cpu time spent up to now is       43.3 secs

     total energy              =    -925.67425014 Ry
     estimated scf accuracy    <      22.92625076 Ry

     total magnetization       =     9.88 Bohr mag/cell
     absolute magnetization    =    10.09 Bohr mag/cell

     iteration #  2     ecut=   200.00 Ry     beta= 0.70
     Davidson diagonalization with overlap

---- Real-time Memory Report at c_bands before calling an iterative solver
           191 MiB given to the printing process from OS
           141 MiB allocation reported by mallinfo(arena+hblkhd)
        169930 MiB available memory on the node where the printing process lives
------------------
     ethr =  1.00E-02,  avg # of iterations =  3.6


     -----------------------------------------------
     Non-local corr. energy    =       1.46783617 Ry
     -----------------------------------------------


     total cpu time spent up to now is       50.4 secs

     total energy              =    -934.09236467 Ry
     estimated scf accuracy    <      53.43102940 Ry

     total magnetization       =     0.00 Bohr mag/cell
     absolute magnetization    =     1.38 Bohr mag/cell

     iteration #  3     ecut=   200.00 Ry     beta= 0.70
     Davidson diagonalization with overlap

---- Real-time Memory Report at c_bands before calling an iterative solver
           193 MiB given to the printing process from OS
           142 MiB allocation reported by mallinfo(arena+hblkhd)
        169917 MiB available memory on the node where the printing process lives
------------------
     ethr =  1.00E-02,  avg # of iterations =  2.2


     -----------------------------------------------
     Non-local corr. energy    =       1.50960681 Ry
     -----------------------------------------------


     total cpu time spent up to now is       56.1 secs

     total energy              =    -937.44197295 Ry
     estimated scf accuracy    <       5.53133435 Ry

     total magnetization       =     3.01 Bohr mag/cell
     absolute magnetization    =     3.08 Bohr mag/cell

     iteration #  4     ecut=   200.00 Ry     beta= 0.70
     Davidson diagonalization with overlap

---- Real-time Memory Report at c_bands before calling an iterative solver
           195 MiB given to the printing process from OS
           144 MiB allocation reported by mallinfo(arena+hblkhd)
        169899 MiB available memory on the node where the printing process lives
------------------
     ethr =  5.53E-03,  avg # of iterations =  3.0


     -----------------------------------------------
     Non-local corr. energy    =       1.50329647 Ry
     -----------------------------------------------


     total cpu time spent up to now is       61.5 secs

     total energy              =    -938.64706570 Ry
     estimated scf accuracy    <       2.13128465 Ry

     total magnetization       =     4.00 Bohr mag/cell
     absolute magnetization    =     4.35 Bohr mag/cell

     iteration #  5     ecut=   200.00 Ry     beta= 0.70
     Davidson diagonalization with overlap

---- Real-time Memory Report at c_bands before calling an iterative solver
           196 MiB given to the printing process from OS
           146 MiB allocation reported by mallinfo(arena+hblkhd)
        169887 MiB available memory on the node where the printing process lives
------------------
     ethr =  2.13E-03,  avg # of iterations =  2.2


     -----------------------------------------------
     Non-local corr. energy    =       1.49861187 Ry
     -----------------------------------------------


     total cpu time spent up to now is       66.3 secs

     total energy              =    -938.73264650 Ry
     estimated scf accuracy    <       0.38885998 Ry

     total magnetization       =     4.00 Bohr mag/cell
     absolute magnetization    =     4.14 Bohr mag/cell

     iteration #  6     ecut=   200.00 Ry     beta= 0.70
     Davidson diagonalization with overlap

---- Real-time Memory Report at c_bands before calling an iterative solver
           198 MiB given to the printing process from OS
           147 MiB allocation reported by mallinfo(arena+hblkhd)
        169872 MiB available memory on the node where the printing process lives
------------------
     ethr =  3.89E-04,  avg # of iterations =  3.0


     -----------------------------------------------
     Non-local corr. energy    =       1.50140903 Ry
     -----------------------------------------------


     total cpu time spent up to now is       71.5 secs

     total energy              =    -938.82025666 Ry
     estimated scf accuracy    <       0.02277311 Ry

     total magnetization       =     4.00 Bohr mag/cell
     absolute magnetization    =     4.08 Bohr mag/cell

     iteration #  7     ecut=   200.00 Ry     beta= 0.70
     Davidson diagonalization with overlap

---- Real-time Memory Report at c_bands before calling an iterative solver
           200 MiB given to the printing process from OS
           149 MiB allocation reported by mallinfo(arena+hblkhd)
        169857 MiB available memory on the node where the printing process lives
------------------
     ethr =  2.28E-05,  avg # of iterations =  9.5


     -----------------------------------------------
     Non-local corr. energy    =       1.50270405 Ry
     -----------------------------------------------


     total cpu time spent up to now is       78.5 secs

     total energy              =    -938.82405814 Ry
     estimated scf accuracy    <       0.01030608 Ry

     total magnetization       =     4.00 Bohr mag/cell
     absolute magnetization    =     4.09 Bohr mag/cell

     iteration #  8     ecut=   200.00 Ry     beta= 0.70
     Davidson diagonalization with overlap

---- Real-time Memory Report at c_bands before calling an iterative solver
           202 MiB given to the printing process from OS
           151 MiB allocation reported by mallinfo(arena+hblkhd)
        169843 MiB available memory on the node where the printing process lives
------------------
     ethr =  1.03E-05,  avg # of iterations =  2.0


     -----------------------------------------------
     Non-local corr. energy    =       1.50405296 Ry
     -----------------------------------------------


     total cpu time spent up to now is       83.4 secs

     total energy              =    -938.82550087 Ry
     estimated scf accuracy    <       0.00177482 Ry

     total magnetization       =     4.00 Bohr mag/cell
     absolute magnetization    =     4.10 Bohr mag/cell

     iteration #  9     ecut=   200.00 Ry     beta= 0.70
     Davidson diagonalization with overlap

---- Real-time Memory Report at c_bands before calling an iterative solver
           203 MiB given to the printing process from OS
           153 MiB allocation reported by mallinfo(arena+hblkhd)
        169829 MiB available memory on the node where the printing process lives
------------------
     ethr =  1.77E-06,  avg # of iterations =  3.9


     -----------------------------------------------
     Non-local corr. energy    =       1.50371550 Ry
     -----------------------------------------------


     total cpu time spent up to now is       89.1 secs

     total energy              =    -938.82593068 Ry
     estimated scf accuracy    <       0.00022349 Ry

     total magnetization       =     4.00 Bohr mag/cell
     absolute magnetization    =     4.10 Bohr mag/cell

     iteration # 10     ecut=   200.00 Ry     beta= 0.70
     Davidson diagonalization with overlap

---- Real-time Memory Report at c_bands before calling an iterative solver
           205 MiB given to the printing process from OS
           154 MiB allocation reported by mallinfo(arena+hblkhd)
        169813 MiB available memory on the node where the printing process lives
------------------
     ethr =  2.23E-07,  avg # of iterations =  2.0


     -----------------------------------------------
     Non-local corr. energy    =       1.50363763 Ry
     -----------------------------------------------


     total cpu time spent up to now is       94.1 secs

     total energy              =    -938.82597088 Ry
     estimated scf accuracy    <       0.00001611 Ry

     total magnetization       =     4.00 Bohr mag/cell
     absolute magnetization    =     4.10 Bohr mag/cell

     iteration # 11     ecut=   200.00 Ry     beta= 0.70
     Davidson diagonalization with overlap

---- Real-time Memory Report at c_bands before calling an iterative solver
           205 MiB given to the printing process from OS
           154 MiB allocation reported by mallinfo(arena+hblkhd)
        169835 MiB available memory on the node where the printing process lives
------------------
     ethr =  1.61E-08,  avg # of iterations =  2.0


     -----------------------------------------------
     Non-local corr. energy    =       1.50365358 Ry
     -----------------------------------------------


     total cpu time spent up to now is       99.5 secs

     total energy              =    -938.82597397 Ry
     estimated scf accuracy    <       0.00000225 Ry

     total magnetization       =     4.00 Bohr mag/cell
     absolute magnetization    =     4.10 Bohr mag/cell

     iteration # 12     ecut=   200.00 Ry     beta= 0.70
     Davidson diagonalization with overlap

---- Real-time Memory Report at c_bands before calling an iterative solver
           205 MiB given to the printing process from OS
           154 MiB allocation reported by mallinfo(arena+hblkhd)
        169835 MiB available memory on the node where the printing process lives
------------------
     ethr =  2.25E-09,  avg # of iterations =  2.2


     -----------------------------------------------
     Non-local corr. energy    =       1.50367399 Ry
     -----------------------------------------------


     Magnetic moment per site  (integrated on atomic sphere of radius R)
     atom   1 (R=1.555)  charge= 14.5502  magn=  1.4349
     atom   2 (R=1.555)  charge= 14.5500  magn=  1.4348
     atom   3 (R=0.983)  charge=  1.0451  magn=  0.0030
     atom   4 (R=0.983)  charge=  1.0447  magn=  0.0030
     atom   5 (R=0.983)  charge=  1.0451  magn=  0.0030
     atom   6 (R=0.983)  charge=  1.0447  magn=  0.0030
     atom   7 (R=0.983)  charge=  2.5395  magn=  0.0870
     atom   8 (R=0.983)  charge=  2.5423  magn=  0.0871
     atom   9 (R=0.983)  charge=  2.5395  magn=  0.0870
     atom  10 (R=0.983)  charge=  2.5423  magn=  0.0871
     atom  11 (R=0.983)  charge=  2.5627  magn=  0.0438
     atom  12 (R=0.983)  charge=  2.5620  magn=  0.0438
     atom  13 (R=0.983)  charge=  2.5627  magn=  0.0438
     atom  14 (R=0.983)  charge=  2.5620  magn=  0.0438

     total cpu time spent up to now is      104.6 secs

     End of self-consistent calculation

 ------ SPIN UP ------------


          k = 0.0260 0.0247-0.0397 ( 28231 PWs)   bands (ev):

   -89.2913 -89.2912 -50.3443 -50.3437 -50.1220 -50.1211 -49.9938 -49.9931
   -13.4999 -12.9363 -11.7092 -11.5679 -10.3395 -10.1121  -8.6707  -8.5958
    -0.9432  -0.1819   2.0172   2.4301   3.1097   3.2261   3.7711   4.0472
     4.7223   5.0057   5.4506   5.5305   5.7985   6.6652   7.3403   7.6595
     8.2305   8.4445   8.7255   8.8473   9.1139   9.5659   9.7765  10.3667
    10.6698  11.4621  12.4383  12.6376  12.7819  12.8737  13.1042  13.3992
    14.1591  14.6151  15.3804  15.5951  17.8678  18.4545  22.5564  23.5419
    25.0187  25.6784  26.3500  27.0168  27.6173  28.1566  28.2441  28.7199
    29.3487

     occupation numbers 
     1.0000   1.0000   1.0000   1.0000   1.0000   1.0000   1.0000   1.0000
     1.0000   1.0000   1.0000   1.0000   1.0000   1.0000   1.0000   1.0000
     1.0000   1.0000   1.0000   1.0000   1.0000   1.0000   1.0000   1.0000
     1.0000   1.0000   1.0000   1.0000   1.0000   1.0000   1.0000   1.0000
     1.0000   1.0000   1.0000   1.0000   1.0000   1.0000   1.0000   1.0000
     1.0000   1.0000   1.0000   1.0000   1.0000   1.0000   1.0000   1.0000
     1.0000   1.0000   1.0000   1.0000   0.0000   0.0000   0.0000   0.0000
     0.0000   0.0000   0.0000   0.0000   0.0000   0.0000   0.0000   0.0000
     0.0000

          k = 0.0260 0.0247 0.0110 ( 28234 PWs)   bands (ev):

   -89.2913 -89.2912 -50.3443 -50.3437 -50.1220 -50.1211 -49.9938 -49.9931
   -13.6197 -12.8509 -11.7120 -11.5407 -10.2403 -10.1411  -8.6543  -8.6235
    -0.9811  -0.1074   2.1720   2.6010   2.8988   3.3219   3.6344   4.0054
     4.4315   4.8711   4.9720   5.2164   5.7539   6.8378   7.3594   7.5975
     8.3892   8.5948   8.8622   9.1274   9.3899   9.7627  10.0130  10.1279
    10.9416  11.3186  12.4849  12.7424  12.7622  12.9490  13.0955  13.2561
    13.8245  14.9061  15.3245  15.6235  18.1706  18.4972  22.8163  22.9811
    24.3817  26.1951  26.5686  26.8008  27.6601  27.8901  28.3847  28.5586
    29.7471

     occupation numbers 
     1.0000   1.0000   1.0000   1.0000   1.0000   1.0000   1.0000   1.0000
     1.0000   1.0000   1.0000   1.0000   1.0000   1.0000   1.0000   1.0000
     1.0000   1.0000   1.0000   1.0000   1.0000   1.0000   1.0000   1.0000
     1.0000   1.0000   1.0000   1.0000   1.0000   1.0000   1.0000   1.0000
     1.0000   1.0000   1.0000   1.0000   1.0000   1.0000   1.0000   1.0000
     1.0000   1.0000   1.0000   1.0000   1.0000   1.0000   1.0000   1.0000
     1.0000   1.0000   1.0000   1.0000   0.0000   0.0000   0.0000   0.0000
     0.0000   0.0000   0.0000   0.0000   0.0000   0.0000   0.0000   0.0000
     0.0000

          k =-0.0260 0.0247-0.0397 ( 28231 PWs)   bands (ev):

   -89.2913 -89.2912 -50.3443 -50.3437 -50.1220 -50.1211 -49.9938 -49.9931
   -13.4999 -12.9363 -11.7091 -11.5680 -10.3396 -10.1120  -8.6707  -8.5958
    -0.9432  -0.1818   2.0170   2.4303   3.1096   3.2262   3.7713   4.0470
     4.7222   5.0058   5.4505   5.5305   5.7986   6.6652   7.3403   7.6596
     8.2305   8.4447   8.7255   8.8469   9.1138   9.5659   9.7764  10.3668
    10.6699  11.4621  12.4383  12.6376  12.7819  12.8738  13.1041  13.3992
    14.1590  14.6150  15.3805  15.5950  17.8679  18.4545  22.5565  23.5418
    25.0186  25.6785  26.3500  27.0169  27.6174  28.1565  28.2441  28.7199
    29.3488

     occupation numbers 
     1.0000   1.0000   1.0000   1.0000   1.0000   1.0000   1.0000   1.0000
     1.0000   1.0000   1.0000   1.0000   1.0000   1.0000   1.0000   1.0000
     1.0000   1.0000   1.0000   1.0000   1.0000   1.0000   1.0000   1.0000
     1.0000   1.0000   1.0000   1.0000   1.0000   1.0000   1.0000   1.0000
     1.0000   1.0000   1.0000   1.0000   1.0000   1.0000   1.0000   1.0000
     1.0000   1.0000   1.0000   1.0000   1.0000   1.0000   1.0000   1.0000
     1.0000   1.0000   1.0000   1.0000   0.0000   0.0000   0.0000   0.0000
     0.0000   0.0000   0.0000   0.0000   0.0000   0.0000   0.0000   0.0000
     0.0000

          k =-0.0260 0.0247 0.0110 ( 28234 PWs)   bands (ev):

   -89.2913 -89.2912 -50.3443 -50.3437 -50.1220 -50.1211 -49.9938 -49.9931
   -13.6197 -12.8509 -11.7120 -11.5407 -10.2404 -10.1410  -8.6543  -8.6235
    -0.9811  -0.1074   2.1721   2.6009   2.8989   3.3218   3.6343   4.0055
     4.4314   4.8712   4.9721   5.2164   5.7538   6.8376   7.3594   7.5975
     8.3889   8.5951   8.8624   9.1273   9.3902   9.7626  10.0129  10.1280
    10.9415  11.3185  12.4849  12.7424  12.7623  12.9491  13.0955  13.2561
    13.8245  14.9062  15.3245  15.6234  18.1706  18.4971  22.8163  22.9810
    24.3817  26.1951  26.5687  26.8007  27.6601  27.8900  28.3847  28.5586
    29.7469

     occupation numbers 
     1.0000   1.0000   1.0000   1.0000   1.0000   1.0000   1.0000   1.0000
     1.0000   1.0000   1.0000   1.0000   1.0000   1.0000   1.0000   1.0000
     1.0000   1.0000   1.0000   1.0000   1.0000   1.0000   1.0000   1.0000
     1.0000   1.0000   1.0000   1.0000   1.0000   1.0000   1.0000   1.0000
     1.0000   1.0000   1.0000   1.0000   1.0000   1.0000   1.0000   1.0000
     1.0000   1.0000   1.0000   1.0000   1.0000   1.0000   1.0000   1.0000
     1.0000   1.0000   1.0000   1.0000   0.0000   0.0000   0.0000   0.0000
     0.0000   0.0000   0.0000   0.0000   0.0000   0.0000   0.0000   0.0000
     0.0000

 ------ SPIN DOWN ----------


          k = 0.0260 0.0247-0.0397 ( 28231 PWs)   bands (ev):

   -87.9144 -87.9143 -48.4835 -48.4832 -48.3052 -48.3045 -48.2424 -48.2415
   -13.3711 -12.8005 -11.5569 -11.4155 -10.1866  -9.9419  -8.4864  -8.4186
    -0.8163  -0.0479   2.1168   2.5660   3.3315   3.4648   4.1312   4.3467
     5.0573   5.3044   5.6568   5.7461   6.0512   6.7756   7.6683   8.1887
     8.5046   8.8195   9.0604   9.1296   9.7943   9.8875  10.2134  10.5872
    11.0076  11.8747  13.3070  13.5292  13.6670  13.7205  13.9275  14.2329
    16.5225  16.8561  17.4631  17.6998  18.1340  18.5875  22.6206  23.5987
    25.0987  25.8022  26.4601  27.1279  27.7575  28.3352  28.3922  28.8616
    29.4810

     occupation numbers 
     1.0000   1.0000   1.0000   1.0000   1.0000   1.0000   1.0000   1.0000
     1.0000   1.0000   1.0000   1.0000   1.0000   1.0000   1.0000   1.0000
     1.0000   1.0000   1.0000   1.0000   1.0000   1.0000   1.0000   1.0000
     1.0000   1.0000   1.0000   1.0000   1.0000   1.0000   1.0000   1.0000
     1.0000   1.0000   1.0000   1.0000   1.0000   1.0000   1.0000   1.0000
     1.0000   1.0000   1.0000   1.0000   1.0000   1.0000   1.0000   1.0000
     0.0000   0.0000   0.0000   0.0000   0.0000   0.0000   0.0000   0.0000
     0.0000   0.0000   0.0000   0.0000   0.0000   0.0000   0.0000   0.0000
     0.0000

          k = 0.0260 0.0247 0.0110 ( 28234 PWs)   bands (ev):

   -87.9144 -87.9143 -48.4836 -48.4832 -48.3052 -48.3045 -48.2424 -48.2415
   -13.4915 -12.7144 -11.5614 -11.3883 -10.0725  -9.9831  -8.4754  -8.4407
    -0.8533   0.0281   2.2924   2.7506   3.0570   3.5741   3.9551   4.3085
     4.6837   5.0197   5.2837   5.4672   6.0902   6.9451   7.7170   8.1719
     8.8678   8.9730   9.3379   9.4617   9.6933  10.1742  10.3526  10.3894
    11.2605  11.6895  13.3750  13.5796  13.6759  13.7470  13.9114  14.0067
    16.3468  17.0907  17.5620  17.7930  18.2835  18.6124  22.8683  23.0462
    24.4936  26.2872  26.6980  26.8865  27.8553  28.0236  28.5235  28.6721
    29.8703

     occupation numbers 
     1.0000   1.0000   1.0000   1.0000   1.0000   1.0000   1.0000   1.0000
     1.0000   1.0000   1.0000   1.0000   1.0000   1.0000   1.0000   1.0000
     1.0000   1.0000   1.0000   1.0000   1.0000   1.0000   1.0000   1.0000
     1.0000   1.0000   1.0000   1.0000   1.0000   1.0000   1.0000   1.0000
     1.0000   1.0000   1.0000   1.0000   1.0000   1.0000   1.0000   1.0000
     1.0000   1.0000   1.0000   1.0000   1.0000   1.0000   1.0000   1.0000
     0.0000   0.0000   0.0000   0.0000   0.0000   0.0000   0.0000   0.0000
     0.0000   0.0000   0.0000   0.0000   0.0000   0.0000   0.0000   0.0000
     0.0000

          k =-0.0260 0.0247-0.0397 ( 28231 PWs)   bands (ev):

   -87.9144 -87.9143 -48.4835 -48.4832 -48.3052 -48.3045 -48.2424 -48.2415
   -13.3711 -12.8004 -11.5569 -11.4155 -10.1866  -9.9419  -8.4864  -8.4186
    -0.8163  -0.0478   2.1166   2.5662   3.3314   3.4649   4.1314   4.3464
     5.0572   5.3046   5.6568   5.7460   6.0513   6.7756   7.6683   8.1888
     8.5046   8.8198   9.0602   9.1293   9.7943   9.8875  10.2134  10.5873
    11.0077  11.8747  13.3070  13.5292  13.6670  13.7204  13.9274  14.2329
    16.5225  16.8561  17.4631  17.6998  18.1340  18.5875  22.6206  23.5986
    25.0986  25.8023  26.4601  27.1279  27.7575  28.3352  28.3921  28.8616
    29.4812

     occupation numbers 
     1.0000   1.0000   1.0000   1.0000   1.0000   1.0000   1.0000   1.0000
     1.0000   1.0000   1.0000   1.0000   1.0000   1.0000   1.0000   1.0000
     1.0000   1.0000   1.0000   1.0000   1.0000   1.0000   1.0000   1.0000
     1.0000   1.0000   1.0000   1.0000   1.0000   1.0000   1.0000   1.0000
     1.0000   1.0000   1.0000   1.0000   1.0000   1.0000   1.0000   1.0000
     1.0000   1.0000   1.0000   1.0000   1.0000   1.0000   1.0000   1.0000
     0.0000   0.0000   0.0000   0.0000   0.0000   0.0000   0.0000   0.0000
     0.0000   0.0000   0.0000   0.0000   0.0000   0.0000   0.0000   0.0000
     0.0000

          k =-0.0260 0.0247 0.0110 ( 28234 PWs)   bands (ev):

   -87.9144 -87.9143 -48.4836 -48.4832 -48.3052 -48.3045 -48.2424 -48.2415
   -13.4915 -12.7145 -11.5614 -11.3883 -10.0727  -9.9830  -8.4754  -8.4407
    -0.8533   0.0280   2.2925   2.7505   3.0571   3.5741   3.9551   4.3086
     4.6836   5.0198   5.2838   5.4671   6.0901   6.9449   7.7170   8.1718
     8.8677   8.9733   9.3378   9.4619   9.6935  10.1741  10.3526  10.3894
    11.2604  11.6894  13.3750  13.5796  13.6760  13.7471  13.9114  14.0067
    16.3468  17.0908  17.5620  17.7929  18.2835  18.6124  22.8683  23.0461
    24.4936  26.2872  26.6981  26.8865  27.8553  28.0235  28.5235  28.6721
    29.8704

     occupation numbers 
     1.0000   1.0000   1.0000   1.0000   1.0000   1.0000   1.0000   1.0000
     1.0000   1.0000   1.0000   1.0000   1.0000   1.0000   1.0000   1.0000
     1.0000   1.0000   1.0000   1.0000   1.0000   1.0000   1.0000   1.0000
     1.0000   1.0000   1.0000   1.0000   1.0000   1.0000   1.0000   1.0000
     1.0000   1.0000   1.0000   1.0000   1.0000   1.0000   1.0000   1.0000
     1.0000   1.0000   1.0000   1.0000   1.0000   1.0000   1.0000   1.0000
     0.0000   0.0000   0.0000   0.0000   0.0000   0.0000   0.0000   0.0000
     0.0000   0.0000   0.0000   0.0000   0.0000   0.0000   0.0000   0.0000
     0.0000

     the Fermi energy is    15.9892 ev

!    total energy              =    -938.82597425 Ry
     estimated scf accuracy    <       0.00000029 Ry
     smearing contrib. (-TS)   =      -0.00000006 Ry
     internal energy E=F+TS    =    -938.82597419 Ry

     The total energy is F=E-TS. E is the sum of the following terms:
     one-electron contribution =    -432.21808941 Ry
     hartree contribution      =     286.88217298 Ry
     xc contribution           =    -167.44442575 Ry
     ewald contribution        =    -626.04563201 Ry

     total magnetization       =     4.00 Bohr mag/cell
     absolute magnetization    =     4.10 Bohr mag/cell

     convergence has been achieved in  12 iterations


     -----------------------------------------------
     Non-local corr. energy    =       1.50367399 Ry
     -----------------------------------------------


     Forces acting on atoms (cartesian axes, Ry/au):

     atom    1 type  1   force =    -0.00000756   -0.00000231    0.00001383
     atom    2 type  1   force =     0.00000531   -0.00003077   -0.00000212
     atom    3 type  2   force =    -0.26062541   -0.05226967   -0.19630306
     atom    4 type  2   force =    -0.26063760    0.05227729    0.19630338
     atom    5 type  2   force =     0.26062726    0.05227565    0.19629737
     atom    6 type  2   force =     0.26063564   -0.05227564   -0.19630293
     atom    7 type  3   force =    -0.31362344    0.67585099   -0.31743539
     atom    8 type  3   force =    -0.31363082   -0.67587567    0.31745150
     atom    9 type  3   force =     0.31362309   -0.67584628    0.31743158
     atom   10 type  3   force =     0.31363498    0.67588752   -0.31745338
     atom   11 type  3   force =     0.45936465    0.67962368    0.21006865
     atom   12 type  3   force =     0.45933786   -0.67959026   -0.21005970
     atom   13 type  3   force =    -0.45936313   -0.67962033   -0.21006935
     atom   14 type  3   force =    -0.45934083    0.67959580    0.21005961
     The non-local contrib.  to forces
     atom    1 type  1   force =     0.00000023   -0.00000281   -0.00000199
     atom    2 type  1   force =     0.00000314    0.00000422   -0.00000180
     atom    3 type  2   force =     0.26412214   -0.00204896    0.19739405
     atom    4 type  2   force =     0.26411328    0.00205203   -0.19739902
     atom    5 type  2   force =    -0.26411946    0.00205085   -0.19739758
     atom    6 type  2   force =    -0.26411646   -0.00205991    0.19740190
     atom    7 type  3   force =     0.73504933   -1.62813513    0.75725995
     atom    8 type  3   force =     0.73502533    1.62807445   -0.75724116
     atom    9 type  3   force =    -0.73505080    1.62814437   -0.75726200
     atom   10 type  3   force =    -0.73501773   -1.62806265    0.75723652
     atom   11 type  3   force =    -1.10780615   -1.70284834   -0.51910690
     atom   12 type  3   force =    -1.10782632    1.70288664    0.51910856
     atom   13 type  3   force =     1.10780916    1.70284579    0.51910980
     atom   14 type  3   force =     1.10782051   -1.70288223   -0.51910467
     The ionic contribution  to forces
     atom    1 type  1   force =    -0.00000000    0.00000000   -0.00000000
     atom    2 type  1   force =     0.00000000    0.00000000   -0.00000000
     atom    3 type  2   force =    -1.53886249   -0.21486505   -1.37475690
     atom    4 type  2   force =    -1.53886249    0.21486505    1.37475690
     atom    5 type  2   force =     1.53886249    0.21486505    1.37475690
     atom    6 type  2   force =     1.53886249   -0.21486505   -1.37475690
     atom    7 type  3   force =    -4.33959348    2.56436404   -3.01727935
     atom    8 type  3   force =    -4.33959348   -2.56436404    3.01727935
     atom    9 type  3   force =     4.33959348   -2.56436404    3.01727935
     atom   10 type  3   force =     4.33959348    2.56436404   -3.01727935
     atom   11 type  3   force =    11.27941981    1.76193684    5.39312401
     atom   12 type  3   force =    11.27941981   -1.76193684   -5.39312401
     atom   13 type  3   force =   -11.27941981   -1.76193684   -5.39312401
     atom   14 type  3   force =   -11.27941981    1.76193684    5.39312401
     The local contribution  to forces
     atom    1 type  1   force =     0.00001402    0.00001459   -0.00004842
     atom    2 type  1   force =     0.00000011    0.00011549   -0.00000739
     atom    3 type  2   force =     1.01098479    0.16074612    0.97933497
     atom    4 type  2   force =     1.01102606   -0.16098233   -0.97932761
     atom    5 type  2   force =    -1.01098929   -0.16075865   -0.97931652
     atom    6 type  2   force =    -1.01102442    0.16090831    0.97933864
     atom    7 type  3   force =     3.29862913   -0.27717728    1.95042837
     atom    8 type  3   force =     3.29862257    0.27716594   -1.95047662
     atom    9 type  3   force =    -3.29862695    0.27719023   -1.95042546
     atom   10 type  3   force =    -3.29862481   -0.27719766    1.95047524
     atom   11 type  3   force =    -9.72782413    0.60353627   -4.67166062
     atom   12 type  3   force =    -9.72774679   -0.60378075    4.67159974
     atom   13 type  3   force =     9.72782164   -0.60355593    4.67166387
     atom   14 type  3   force =     9.72774600    0.60374948   -4.67158911
     The core correction contribution to forces
     atom    1 type  1   force =    -0.00000006    0.00000012   -0.00000008
     atom    2 type  1   force =    -0.00000010    0.00000014    0.00000013
     atom    3 type  2   force =     0.00309190    0.00386657    0.00170994
     atom    4 type  2   force =     0.00309213   -0.00386743   -0.00170946
     atom    5 type  2   force =    -0.00309202   -0.00386665   -0.00170971
     atom    6 type  2   force =    -0.00309198    0.00386774    0.00170938
     atom    7 type  3   force =    -0.00766173    0.01678169   -0.00783690
     atom    8 type  3   force =    -0.00766016   -0.01677775    0.00783491
     atom    9 type  3   force =     0.00766186   -0.01678211    0.00783703
     atom   10 type  3   force =     0.00765990    0.01677719   -0.00783474
     atom   11 type  3   force =     0.01544488    0.01695542    0.00765217
     atom   12 type  3   force =     0.01544415   -0.01695864   -0.00765266
     atom   13 type  3   force =    -0.01544499   -0.01695542   -0.00765227
     atom   14 type  3   force =    -0.01544399    0.01695834    0.00765257
     The Hubbard contrib.    to forces
     atom    1 type  1   force =     0.00000000    0.00000000    0.00000000
     atom    2 type  1   force =     0.00000000    0.00000000    0.00000000
     atom    3 type  2   force =     0.00000000    0.00000000    0.00000000
     atom    4 type  2   force =     0.00000000    0.00000000    0.00000000
     atom    5 type  2   force =     0.00000000    0.00000000    0.00000000
     atom    6 type  2   force =     0.00000000    0.00000000    0.00000000
     atom    7 type  3   force =     0.00000000    0.00000000    0.00000000
     atom    8 type  3   force =     0.00000000    0.00000000    0.00000000
     atom    9 type  3   force =     0.00000000    0.00000000    0.00000000
     atom   10 type  3   force =     0.00000000    0.00000000    0.00000000
     atom   11 type  3   force =     0.00000000    0.00000000    0.00000000
     atom   12 type  3   force =     0.00000000    0.00000000    0.00000000
     atom   13 type  3   force =     0.00000000    0.00000000    0.00000000
     atom   14 type  3   force =     0.00000000    0.00000000    0.00000000
     The SCF correction term to forces
     atom    1 type  1   force =    -0.00002164   -0.00001618    0.00006509
     atom    2 type  1   force =     0.00000227   -0.00015259    0.00000770
     atom    3 type  2   force =     0.00003836    0.00002967    0.00001564
     atom    4 type  2   force =    -0.00000648    0.00020800   -0.00001668
     atom    5 type  2   force =    -0.00003434   -0.00001693   -0.00003497
     atom    6 type  2   force =     0.00000613   -0.00012870    0.00000481
     atom    7 type  3   force =    -0.00004659    0.00001571   -0.00000669
     atom    8 type  3   force =    -0.00002497    0.00002375    0.00005577
     atom    9 type  3   force =     0.00004562   -0.00003671    0.00000342
     atom   10 type  3   force =     0.00002425    0.00000464   -0.00005030
     atom   11 type  3   force =     0.00013036    0.00004152    0.00006075
     atom   12 type  3   force =     0.00004711    0.00019736    0.00000942
     atom   13 type  3   force =    -0.00012902   -0.00001990   -0.00006598
     atom   14 type  3   force =    -0.00004342   -0.00016861   -0.00002243

     Total force =     2.434846     Total SCF correction =     0.000472


     Computing stress (Cartesian axis) and pressure



     -----------------------------------------------
     Non-local corr. energy    =       1.50367399 Ry
     -----------------------------------------------

          total   stress  (Ry/bohr**3)                   (kbar)     P=     2413.28
   0.01166069   0.00000002  -0.00000006         1715.35        0.00       -0.01
   0.00000002   0.02841956  -0.00214770            0.00     4180.66     -315.94
  -0.00000006  -0.00214770   0.00913516           -0.01     -315.94     1343.83

     kinetic stress (kbar)  82848.40      0.01     -0.01
                                0.01  79912.61    141.20
                               -0.01    141.20  82710.74

     local   stress (kbar)  -6021.69     -0.10     -0.02
                               -0.10 -74695.38   4942.71
                               -0.02   4942.71    655.16

     nonloc. stress (kbar) -12324.32     -0.01      0.00
                               -0.01 -12392.20     60.13
                                0.00     60.13 -12129.21

     hartree stress (kbar)  16872.29      0.11      0.02
                                0.11  39272.54  -1166.76
                                0.02  -1166.76  15250.53

     exc-cor stress (kbar)  -5065.48      0.00     -0.00
                                0.00  -4845.45    -28.99
                               -0.00    -28.99  -5116.14

     corecor stress (kbar)  -7431.66     -0.00      0.00
                               -0.00  -7454.51      5.42
                                0.00      5.42  -7410.58

     ewald   stress (kbar) -67311.67     -0.00     -0.00
                               -0.00 -15715.62  -4275.13
                               -0.00  -4275.13 -72774.51

     hubbard stress (kbar)      0.00      0.00      0.00
                                0.00      0.00      0.00
                                0.00      0.00      0.00

     DFT-D   stress (kbar)      0.00      0.00      0.00
                                0.00      0.00      0.00
                                0.00      0.00      0.00

     XDM     stress (kbar)      0.00      0.00      0.00
                                0.00      0.00      0.00
                                0.00      0.00      0.00

     dft-nl  stress (kbar)    149.46      0.00      0.00
                                0.00     98.68      5.49
                                0.00      5.49    157.84

     TS-vdW  stress (kbar)      0.00      0.00      0.00
                                0.00      0.00      0.00
                                0.00      0.00      0.00


                                0.00      0.00      0.00
                                0.00      0.00      0.00


                                0.00      0.00      0.00


     Writing all to output data dir ./calc.save/

     init_run     :     24.95s CPU     25.12s WALL (       1 calls)
     electrons    :     76.80s CPU     79.46s WALL (       1 calls)
     forces       :      7.80s CPU      7.84s WALL (       1 calls)
     stress       :     21.33s CPU     21.42s WALL (       1 calls)

     Called by init_run:
     wfcinit      :      1.62s CPU      1.69s WALL (       1 calls)
     wfcinit:wfcr :      1.40s CPU      1.47s WALL (       8 calls)
     potinit      :     16.34s CPU     16.41s WALL (       1 calls)
     hinit0       :      6.93s CPU      6.95s WALL (       1 calls)

     Called by electrons:
     c_bands      :     63.26s CPU     65.41s WALL (      12 calls)
     sum_band     :      7.37s CPU      7.62s WALL (      12 calls)
     v_of_rho     :     18.96s CPU     19.21s WALL (      13 calls)
     v_h          :      0.03s CPU      0.03s WALL (      13 calls)
     v_xc         :     19.92s CPU     20.20s WALL (      15 calls)
     mix_rho      :      0.18s CPU      0.19s WALL (      12 calls)
     vdW_kernel   :     12.53s CPU     12.57s WALL (       1 calls)

     Called by c_bands:
     init_us_2    :      0.78s CPU      0.79s WALL (     216 calls)
     init_us_2:cp :      0.78s CPU      0.79s WALL (     216 calls)
     cegterg      :     60.40s CPU     62.54s WALL (      96 calls)

     Called by sum_band:
     sum_band:wei :      0.00s CPU      0.00s WALL (      12 calls)
     sum_band:loo :      7.28s CPU      7.52s WALL (      12 calls)
     sum_band:buf :      0.08s CPU      0.08s WALL (      96 calls)
     sum_band:ini :      0.35s CPU      0.35s WALL (      96 calls)

     Called by *egterg:
     cdiaghg      :      2.04s CPU      2.09s WALL (     485 calls)
     cegterg:over :      3.38s CPU      3.41s WALL (     389 calls)
     cegterg:upda :      2.43s CPU      2.45s WALL (     389 calls)
     cegterg:last :      3.48s CPU      3.51s WALL (     259 calls)
     cdiaghg:chol :      0.12s CPU      0.13s WALL (     485 calls)
     cdiaghg:inve :      0.03s CPU      0.03s WALL (     485 calls)
     cdiaghg:para :      0.28s CPU      0.30s WALL (     970 calls)
     h_psi        :     49.02s CPU     51.07s WALL (     493 calls)
     g_psi        :      0.33s CPU      0.33s WALL (     389 calls)

     Called by h_psi:
     h_psi:calbec :      3.35s CPU      3.41s WALL (     493 calls)
     vloc_psi     :     42.15s CPU     44.13s WALL (     493 calls)
     add_vuspsi   :      3.27s CPU      3.28s WALL (     493 calls)

     General routines
     calbec       :      3.77s CPU      3.82s WALL (     533 calls)
     fft          :      2.25s CPU      2.46s WALL (    1299 calls)
     ffts         :      0.03s CPU      0.04s WALL (      24 calls)
     fftw         :     44.11s CPU     46.13s WALL (   45422 calls)

     Parallel routines

     PWSCF        :   2m11.03s CPU   2m14.71s WALL


   This run was terminated on:  15:44:10  25Oct2022            

=------------------------------------------------------------------------------=
   JOB DONE.
=------------------------------------------------------------------------------=
