
     Program PWSCF v.7.0 starts on 25Oct2022 at 15:53:33 

     This program is part of the open-source Quantum ESPRESSO suite
     for quantum simulation of materials; please cite
         "P. Giannozzi et al., J. Phys.:Condens. Matter 21 395502 (2009);
         "P. Giannozzi et al., J. Phys.:Condens. Matter 29 465901 (2017);
         "P. Giannozzi et al., J. Chem. Phys. 152 154105 (2020);
          URL http://www.quantum-espresso.org", 
     in publications or presentations arising from this work. More details at
     http://www.quantum-espresso.org/quote

     Parallel version (MPI), running on     8 processors

     MPI processes distributed on     1 nodes
     R & G space division:  proc/nbgrp/npool/nimage =       8
     179288 MiB available memory on the printing compute node when the environment starts

     Reading input from pw.inp

     Current dimensions of program PWSCF are:
     Max number of different atomic species (ntypx) = 10
     Max number of k-points (npk) =  40000
     Max angular momentum in pseudopotentials (lmaxx) =  4
     Message from routine volume:
     strange lattice parameter
     Message from routine cell_base_init:
     DEPRECATED: use true lattice parameter, not A to a.u. conversion factor

     IMPORTANT: XC functional enforced from input :
     Exchange-correlation= VDW-DF
                           (   1   4   4   0   1   0   0)
     Any further DFT definition will be discarded
     Please, verify this is what you really want


     Subspace diagonalization in iterative solution of the eigenvalue problem:
     one sub-group per band group will be used
     scalapack distributed-memory algorithm (size of sub-group:  2*  2 procs)


     Parallelization info
     --------------------
     sticks:   dense  smooth     PW     G-vecs:    dense   smooth      PW
     Min         699     699    183                39403    39403    5298
     Max         700     700    184                39405    39405    5301
     Sum        5593    5593   1467               315229   315229   42397

     Using Slab Decomposition



     bravais-lattice index     =            0
     lattice parameter (alat)  =       0.9500  a.u.
     unit-cell volume          =     825.2304 (a.u.)^3
     number of atoms/cell      =           14
     number of atomic types    =            3
     number of electrons       =       100.00
     number of Kohn-Sham states=           65
     kinetic-energy cutoff     =     200.0000  Ry
     charge density cutoff     =     800.0000  Ry
     scf convergence threshold =      1.0E-06
     mixing beta               =       0.7000
     number of iterations used =            8  plain     mixing
     Exchange-correlation= VDW-DF
                           (   1   4   4   0   1   0   0)

     celldm(1)=   0.950000  celldm(2)=   0.000000  celldm(3)=   0.000000
     celldm(4)=   0.000000  celldm(5)=   0.000000  celldm(6)=   0.000000

     crystal axes: (cart. coord. in units of alat)
               a(1) = (   0.000000  10.137047   0.000000 )  
               a(2) = (   9.612603   0.000000   0.000000 )  
               a(3) = (   0.000000  -5.745581  -9.877611 )  

     reciprocal axes: (cart. coord. in units 2 pi/alat)
               b(1) = (  0.000000  0.098648 -0.057381 )  
               b(2) = (  0.104030 -0.000000  0.000000 )  
               b(3) = (  0.000000  0.000000 -0.101239 )  


     PseudoPot. # 1 for Ni read from file:
     ./28_Ni_18_1.7_2.2_pbe_n_v1.0.upf
     MD5 check sum: 081853746d39b5abdc129692a5e93361
     Pseudo is Norm-conserving + core correction, Zval = 18.0
     Generated using ONCVPSP code by D. R. Hamann
     Using radial grid of 1370 points,  6 beta functions with: 
                l(1) =   0
                l(2) =   0
                l(3) =   1
                l(4) =   1
                l(5) =   2
                l(6) =   2

     PseudoPot. # 2 for C  read from file:
     ./06_C_4_1.2_1.2_pbe_n_v1.0.upf
     MD5 check sum: 7e0e17a2517474b8bea671dc4b65026c
     Pseudo is Norm-conserving + core correction, Zval =  4.0
     Generated using ONCVPSP code by D. R. Hamann
     Using radial grid of 1246 points,  4 beta functions with: 
                l(1) =   0
                l(2) =   0
                l(3) =   1
                l(4) =   1

     PseudoPot. # 3 for O  read from file:
     ./08_O_6_1.2_1.4_pbe_n_v1.0.upf
     MD5 check sum: a8b7f44dbbd6106bf79c6036dc5c6a43
     Pseudo is Norm-conserving + core correction, Zval =  6.0
     Generated using ONCVPSP code by D. R. Hamann
     Using radial grid of  934 points,  5 beta functions with: 
                l(1) =   0
                l(2) =   0
                l(3) =   1
                l(4) =   1
                l(5) =   2

     atomic species   valence    mass     pseudopotential
        Ni            18.00    59.00000     Ni( 1.00)
        C              4.00    12.00000     C ( 1.00)
        O              6.00    16.00000     O ( 1.00)

     Starting magnetic structure 
     atomic species   magnetization
        Ni           1.000
        C            0.000
        O            0.000

     No symmetry found


                                    s                        frac. trans.

      isym =  1     identity                                     

 cryst.   s( 1) = (     1          0          0      )
                  (     0          1          0      )
                  (     0          0          1      )

 cart.    s( 1) = (  1.0000000  0.0000000  0.0000000 )
                  (  0.0000000  1.0000000  0.0000000 )
                  (  0.0000000  0.0000000  1.0000000 )


   Cartesian axes

     site n.     atom                  positions (alat units)
         1           Ni  tau(   1) = (   4.8063017  -2.8727903  -4.9388055  )
         2           Ni  tau(   2) = (   0.0000000   0.0000000   0.0000000  )
         3           C   tau(   3) = (   5.9644954   2.2506991  -4.0580090  )
         4           C   tau(   4) = (   1.1581937   5.0135579  -0.8807964  )
         5           C   tau(   5) = (   3.6481079   2.1407676  -5.8196019  )
         6           C   tau(   6) = (   8.4544096  -0.6220912  -8.9968145  )
         7           O   tau(   7) = (   2.8122056   4.2227277  -6.7025319  )
         8           O   tau(   8) = (   7.6185072  -2.7040513  -8.1138845  )
         9           O   tau(   9) = (   6.8003978   0.1687390  -3.1750790  )
        10           O   tau(  10) = (   1.9940961   7.0955180  -1.7637265  )
        11           O   tau(  11) = (   6.8795095   4.4078477  -3.6179615  )
        12           O   tau(  12) = (   2.0732078   2.8564094  -1.3208440  )
        13           O   tau(  13) = (   2.7330938  -0.0163809  -6.2596495  )
        14           O   tau(  14) = (   7.5393955   1.5350574  -8.5567669  )

   Crystallographic axes

     site n.     atom                  positions (cryst. coord.)
         1           Ni  tau(   1) = ( -0.0000000  0.5000000  0.5000000  )
         2           Ni  tau(   2) = (  0.0000000  0.0000000  0.0000000  )
         3           C   tau(   3) = (  0.4548810  0.6204870  0.4108290  )
         4           C   tau(   4) = (  0.5451190  0.1204870  0.0891710  )
         5           C   tau(   5) = (  0.5451190  0.3795130  0.5891710  )
         6           C   tau(   6) = (  0.4548810  0.8795130  0.9108290  )
         7           O   tau(   7) = (  0.8011640  0.2925540  0.6785580  )
         8           O   tau(   8) = (  0.1988360  0.7925540  0.8214420  )
         9           O   tau(   9) = (  0.1988360  0.7074460  0.3214420  )
        10           O   tau(  10) = (  0.8011640  0.2074460  0.1785580  )
        11           O   tau(  11) = (  0.6424290  0.7156760  0.3662790  )
        12           O   tau(  12) = (  0.3575710  0.2156760  0.1337210  )
        13           O   tau(  13) = (  0.3575710  0.2843240  0.6337210  )
        14           O   tau(  14) = (  0.6424290  0.7843240  0.8662790  )

     number of k points=     4  Fermi-Dirac smearing, width (Ry)=  0.0020
                       cart. coord. in units 2pi/alat
        k(    1) = (   0.0260075   0.0246620  -0.0396551), wk =   0.2500000
        k(    2) = (   0.0260075   0.0246620   0.0109644), wk =   0.2500000
        k(    3) = (  -0.0260075   0.0246620  -0.0396551), wk =   0.2500000
        k(    4) = (  -0.0260075   0.0246620   0.0109644), wk =   0.2500000

                       cryst. coord.
        k(    1) = (   0.2500000   0.2500000   0.2500000), wk =   0.2500000
        k(    2) = (   0.2500000   0.2500000  -0.2500000), wk =   0.2500000
        k(    3) = (   0.2500000  -0.2500000   0.2500000), wk =   0.2500000
        k(    4) = (   0.2500000  -0.2500000  -0.2500000), wk =   0.2500000

     Dense  grid:   315229 G-vectors     FFT dimensions: (  90,  90, 100)

     Dynamical RAM for                 wfc:       4.89 MB

     Dynamical RAM for     wfc (w. buffer):      43.98 MB

     Dynamical RAM for           str. fact:       1.80 MB

     Dynamical RAM for           local pot:       0.00 MB

     Dynamical RAM for          nlocal pot:      12.93 MB

     Dynamical RAM for                qrad:       6.81 MB

     Dynamical RAM for          rho,v,vnew:       8.43 MB

     Dynamical RAM for               rhoin:       2.81 MB

     Dynamical RAM for            rho*nmix:      19.24 MB

     Dynamical RAM for           G-vectors:       2.56 MB

     Dynamical RAM for          h,s,v(r/c):       0.19 MB

     Dynamical RAM for          <psi|beta>:       0.17 MB

     Dynamical RAM for                 psi:       9.77 MB

     Dynamical RAM for                hpsi:       9.77 MB

     Dynamical RAM for      wfcinit/wfcrot:       9.87 MB

     Estimated static dynamical RAM per process >      86.54 MB

     Estimated max dynamical RAM per process >     125.69 MB

     Estimated total dynamical RAM >    1005.52 MB
     Generating pointlists ...
     new r_m :   1.5545 (alat units)  1.4768 (a.u.) for type    1
     new r_m :   0.9835 (alat units)  0.9343 (a.u.) for type    2
     new r_m :   0.9835 (alat units)  0.9343 (a.u.) for type    3

     Initial potential from superposition of free atoms

     starting charge      99.9993, renormalised to     100.0000


     %%%%%%%%%%%%%%%%%%%%%%%%%%%%%%%%%%%%%%%%%%%%%%%%%%%%%%%%%%%%%%%%%%%%%%%%
     %                                                                      %
     % You are using vdW-DF, which was implemented by the Thonhauser group. %
     % Please cite the following two papers that made this development      %
     % possible and the two reviews that describe the various versions:     %
     %                                                                      %
     %   T. Thonhauser et al., PRL 115, 136402 (2015).                      %
     %   T. Thonhauser et al., PRB 76, 125112 (2007).                       %
     %   K. Berland et al., Rep. Prog. Phys. 78, 066501 (2015).             %
     %   D.C. Langreth et al., J. Phys.: Condens. Matter 21, 084203 (2009). %
     %                                                                      %
     %                                                                      %
     % If you are calculating the stress with vdW-DF, please also cite:     %
     %                                                                      %
     %   R. Sabatini et al., J. Phys.: Condens. Matter 24, 424209 (2012).   %
     %                                                                      %
     %%%%%%%%%%%%%%%%%%%%%%%%%%%%%%%%%%%%%%%%%%%%%%%%%%%%%%%%%%%%%%%%%%%%%%%%


     Carrying out vdW-DF run using the following parameters:
     Nqs    =  20  Npoints =  1024  r_max =  100.000
     q_mesh =  0.00001000  0.04494208  0.09755937  0.15916263
               0.23128650  0.31572767  0.41458969  0.53033537
               0.66584808  0.82450364  1.01025438  1.22772762
               1.48234092  1.78043706  2.12944203  2.53805004
               3.01644009  3.57652955  4.23227104  5.00000000


     -----------------------------------------------
     Non-local corr. energy    =       1.37635406 Ry
     -----------------------------------------------

     Starting wfcs are random

     total cpu time spent up to now is       30.5 secs

     per-process dynamical memory:   143.4 Mb

     Self-consistent Calculation

     iteration #  1     ecut=   200.00 Ry     beta= 0.70
     Davidson diagonalization with overlap

---- Real-time Memory Report at c_bands before calling an iterative solver
           183 MiB given to the printing process from OS
           140 MiB allocation reported by mallinfo(arena+hblkhd)
        178166 MiB available memory on the node where the printing process lives
------------------
     ethr =  1.00E-02,  avg # of iterations = 12.8


     -----------------------------------------------
     Non-local corr. energy    =       1.59018738 Ry
     -----------------------------------------------


     total cpu time spent up to now is       57.4 secs

     total energy              =    -927.72218436 Ry
     estimated scf accuracy    <      22.30573251 Ry

     total magnetization       =    10.28 Bohr mag/cell
     absolute magnetization    =    10.61 Bohr mag/cell

     iteration #  2     ecut=   200.00 Ry     beta= 0.70
     Davidson diagonalization with overlap

---- Real-time Memory Report at c_bands before calling an iterative solver
           241 MiB given to the printing process from OS
           192 MiB allocation reported by mallinfo(arena+hblkhd)
        177741 MiB available memory on the node where the printing process lives
------------------
     ethr =  1.00E-02,  avg # of iterations =  4.5


     -----------------------------------------------
     Non-local corr. energy    =       1.59479669 Ry
     -----------------------------------------------


     total cpu time spent up to now is       68.8 secs

     total energy              =    -934.71374593 Ry
     estimated scf accuracy    <      66.11144368 Ry

     total magnetization       =     0.76 Bohr mag/cell
     absolute magnetization    =     1.96 Bohr mag/cell

     iteration #  3     ecut=   200.00 Ry     beta= 0.70
     Davidson diagonalization with overlap

---- Real-time Memory Report at c_bands before calling an iterative solver
           244 MiB given to the printing process from OS
           194 MiB allocation reported by mallinfo(arena+hblkhd)
        177722 MiB available memory on the node where the printing process lives
------------------
     ethr =  1.00E-02,  avg # of iterations =  2.6


     -----------------------------------------------
     Non-local corr. energy    =       1.65577627 Ry
     -----------------------------------------------


     total cpu time spent up to now is       77.4 secs

     total energy              =    -938.65092823 Ry
     estimated scf accuracy    <       8.92116030 Ry

     total magnetization       =     2.00 Bohr mag/cell
     absolute magnetization    =     2.17 Bohr mag/cell

     iteration #  4     ecut=   200.00 Ry     beta= 0.70
     Davidson diagonalization with overlap

---- Real-time Memory Report at c_bands before calling an iterative solver
           246 MiB given to the printing process from OS
           197 MiB allocation reported by mallinfo(arena+hblkhd)
        177703 MiB available memory on the node where the printing process lives
------------------
     ethr =  8.92E-03,  avg # of iterations =  2.4


     -----------------------------------------------
     Non-local corr. energy    =       1.66200610 Ry
     -----------------------------------------------


     total cpu time spent up to now is       84.9 secs

     total energy              =    -940.68958237 Ry
     estimated scf accuracy    <       3.15527695 Ry

     total magnetization       =     4.00 Bohr mag/cell
     absolute magnetization    =     4.48 Bohr mag/cell

     iteration #  5     ecut=   200.00 Ry     beta= 0.70
     Davidson diagonalization with overlap

---- Real-time Memory Report at c_bands before calling an iterative solver
           249 MiB given to the printing process from OS
           199 MiB allocation reported by mallinfo(arena+hblkhd)
        177687 MiB available memory on the node where the printing process lives
------------------
     ethr =  3.16E-03,  avg # of iterations =  2.4


     -----------------------------------------------
     Non-local corr. energy    =       1.64368714 Ry
     -----------------------------------------------


     total cpu time spent up to now is       92.3 secs

     total energy              =    -939.77835843 Ry
     estimated scf accuracy    <       6.69903196 Ry

     total magnetization       =     3.93 Bohr mag/cell
     absolute magnetization    =     3.96 Bohr mag/cell

     iteration #  6     ecut=   200.00 Ry     beta= 0.70
     Davidson diagonalization with overlap

---- Real-time Memory Report at c_bands before calling an iterative solver
           251 MiB given to the printing process from OS
           202 MiB allocation reported by mallinfo(arena+hblkhd)
        177667 MiB available memory on the node where the printing process lives
------------------
     ethr =  3.16E-03,  avg # of iterations =  2.0


     -----------------------------------------------
     Non-local corr. energy    =       1.64214364 Ry
     -----------------------------------------------


     total cpu time spent up to now is       99.4 secs

     total energy              =    -940.34215497 Ry
     estimated scf accuracy    <       5.02231226 Ry

     total magnetization       =     1.52 Bohr mag/cell
     absolute magnetization    =     1.75 Bohr mag/cell

     iteration #  7     ecut=   200.00 Ry     beta= 0.70
     Davidson diagonalization with overlap

---- Real-time Memory Report at c_bands before calling an iterative solver
           254 MiB given to the printing process from OS
           204 MiB allocation reported by mallinfo(arena+hblkhd)
        177647 MiB available memory on the node where the printing process lives
------------------
     ethr =  3.16E-03,  avg # of iterations =  1.0


     -----------------------------------------------
     Non-local corr. energy    =       1.65065784 Ry
     -----------------------------------------------


     total cpu time spent up to now is      106.1 secs

     total energy              =    -940.63948909 Ry
     estimated scf accuracy    <       0.56042875 Ry

     total magnetization       =     2.39 Bohr mag/cell
     absolute magnetization    =     2.47 Bohr mag/cell

     iteration #  8     ecut=   200.00 Ry     beta= 0.70
     Davidson diagonalization with overlap

---- Real-time Memory Report at c_bands before calling an iterative solver
           256 MiB given to the printing process from OS
           206 MiB allocation reported by mallinfo(arena+hblkhd)
        177628 MiB available memory on the node where the printing process lives
------------------
     ethr =  5.60E-04,  avg # of iterations =  2.0


     -----------------------------------------------
     Non-local corr. energy    =       1.64872088 Ry
     -----------------------------------------------


     total cpu time spent up to now is      113.1 secs

     total energy              =    -940.70674764 Ry
     estimated scf accuracy    <       0.10871848 Ry

     total magnetization       =     3.91 Bohr mag/cell
     absolute magnetization    =     3.93 Bohr mag/cell

     iteration #  9     ecut=   200.00 Ry     beta= 0.70
     Davidson diagonalization with overlap

---- Real-time Memory Report at c_bands before calling an iterative solver
           258 MiB given to the printing process from OS
           209 MiB allocation reported by mallinfo(arena+hblkhd)
        177602 MiB available memory on the node where the printing process lives
------------------
     ethr =  1.09E-04,  avg # of iterations =  8.6


     -----------------------------------------------
     Non-local corr. energy    =       1.64899759 Ry
     -----------------------------------------------


     total cpu time spent up to now is      121.2 secs

     total energy              =    -940.72090950 Ry
     estimated scf accuracy    <       0.09186030 Ry

     total magnetization       =     4.00 Bohr mag/cell
     absolute magnetization    =     4.04 Bohr mag/cell

     iteration # 10     ecut=   200.00 Ry     beta= 0.70
     Davidson diagonalization with overlap

---- Real-time Memory Report at c_bands before calling an iterative solver
           261 MiB given to the printing process from OS
           211 MiB allocation reported by mallinfo(arena+hblkhd)
        177586 MiB available memory on the node where the printing process lives
------------------
     ethr =  9.19E-05,  avg # of iterations =  1.2


     -----------------------------------------------
     Non-local corr. energy    =       1.64930702 Ry
     -----------------------------------------------


     total cpu time spent up to now is      127.9 secs

     total energy              =    -940.71733928 Ry
     estimated scf accuracy    <       0.05087247 Ry

     total magnetization       =     4.00 Bohr mag/cell
     absolute magnetization    =     4.08 Bohr mag/cell

     iteration # 11     ecut=   200.00 Ry     beta= 0.70
     Davidson diagonalization with overlap

---- Real-time Memory Report at c_bands before calling an iterative solver
           261 MiB given to the printing process from OS
           211 MiB allocation reported by mallinfo(arena+hblkhd)
        177585 MiB available memory on the node where the printing process lives
------------------
     c_bands:  1 eigenvalues not converged
     ethr =  5.09E-05,  avg # of iterations =  5.9


     -----------------------------------------------
     Non-local corr. energy    =       1.64936367 Ry
     -----------------------------------------------


     total cpu time spent up to now is      135.3 secs

     total energy              =    -940.71829933 Ry
     estimated scf accuracy    <       0.01420317 Ry

     total magnetization       =     4.00 Bohr mag/cell
     absolute magnetization    =     4.12 Bohr mag/cell

     iteration # 12     ecut=   200.00 Ry     beta= 0.70
     Davidson diagonalization with overlap

---- Real-time Memory Report at c_bands before calling an iterative solver
           261 MiB given to the printing process from OS
           211 MiB allocation reported by mallinfo(arena+hblkhd)
        177584 MiB available memory on the node where the printing process lives
------------------
     ethr =  1.42E-05,  avg # of iterations =  5.4


     -----------------------------------------------
     Non-local corr. energy    =       1.64948318 Ry
     -----------------------------------------------


     total cpu time spent up to now is      142.7 secs

     total energy              =    -940.71752446 Ry
     estimated scf accuracy    <       0.00523238 Ry

     total magnetization       =     4.00 Bohr mag/cell
     absolute magnetization    =     4.12 Bohr mag/cell

     iteration # 13     ecut=   200.00 Ry     beta= 0.70
     Davidson diagonalization with overlap

---- Real-time Memory Report at c_bands before calling an iterative solver
           261 MiB given to the printing process from OS
           211 MiB allocation reported by mallinfo(arena+hblkhd)
        177584 MiB available memory on the node where the printing process lives
------------------
     ethr =  5.23E-06,  avg # of iterations =  8.5


     -----------------------------------------------
     Non-local corr. energy    =       1.64968801 Ry
     -----------------------------------------------


     total cpu time spent up to now is      150.8 secs

     total energy              =    -940.71778068 Ry
     estimated scf accuracy    <       0.00093519 Ry

     total magnetization       =     4.00 Bohr mag/cell
     absolute magnetization    =     4.12 Bohr mag/cell

     iteration # 14     ecut=   200.00 Ry     beta= 0.70
     Davidson diagonalization with overlap

---- Real-time Memory Report at c_bands before calling an iterative solver
           261 MiB given to the printing process from OS
           211 MiB allocation reported by mallinfo(arena+hblkhd)
        177584 MiB available memory on the node where the printing process lives
------------------
     ethr =  9.35E-07,  avg # of iterations =  3.9


     -----------------------------------------------
     Non-local corr. energy    =       1.64977676 Ry
     -----------------------------------------------


     total cpu time spent up to now is      158.4 secs

     total energy              =    -940.71793585 Ry
     estimated scf accuracy    <       0.00011347 Ry

     total magnetization       =     4.00 Bohr mag/cell
     absolute magnetization    =     4.12 Bohr mag/cell

     iteration # 15     ecut=   200.00 Ry     beta= 0.70
     Davidson diagonalization with overlap

---- Real-time Memory Report at c_bands before calling an iterative solver
           261 MiB given to the printing process from OS
           211 MiB allocation reported by mallinfo(arena+hblkhd)
        177584 MiB available memory on the node where the printing process lives
------------------
     ethr =  1.13E-07,  avg # of iterations =  2.0


     -----------------------------------------------
     Non-local corr. energy    =       1.64982303 Ry
     -----------------------------------------------


     total cpu time spent up to now is      165.9 secs

     total energy              =    -940.71795020 Ry
     estimated scf accuracy    <       0.00001508 Ry

     total magnetization       =     4.00 Bohr mag/cell
     absolute magnetization    =     4.12 Bohr mag/cell

     iteration # 16     ecut=   200.00 Ry     beta= 0.70
     Davidson diagonalization with overlap

---- Real-time Memory Report at c_bands before calling an iterative solver
           261 MiB given to the printing process from OS
           211 MiB allocation reported by mallinfo(arena+hblkhd)
        177572 MiB available memory on the node where the printing process lives
------------------
     ethr =  1.51E-08,  avg # of iterations =  2.0


     -----------------------------------------------
     Non-local corr. energy    =       1.64981457 Ry
     -----------------------------------------------


     total cpu time spent up to now is      173.9 secs

     total energy              =    -940.71795219 Ry
     estimated scf accuracy    <       0.00000569 Ry

     total magnetization       =     4.00 Bohr mag/cell
     absolute magnetization    =     4.11 Bohr mag/cell

     iteration # 17     ecut=   200.00 Ry     beta= 0.70
     Davidson diagonalization with overlap

---- Real-time Memory Report at c_bands before calling an iterative solver
           261 MiB given to the printing process from OS
           211 MiB allocation reported by mallinfo(arena+hblkhd)
        176560 MiB available memory on the node where the printing process lives
------------------
     ethr =  5.69E-09,  avg # of iterations =  2.0


     -----------------------------------------------
     Non-local corr. energy    =       1.64981396 Ry
     -----------------------------------------------


     total cpu time spent up to now is      181.7 secs

     total energy              =    -940.71795356 Ry
     estimated scf accuracy    <       0.00000138 Ry

     total magnetization       =     4.00 Bohr mag/cell
     absolute magnetization    =     4.11 Bohr mag/cell

     iteration # 18     ecut=   200.00 Ry     beta= 0.70
     Davidson diagonalization with overlap

---- Real-time Memory Report at c_bands before calling an iterative solver
           261 MiB given to the printing process from OS
           211 MiB allocation reported by mallinfo(arena+hblkhd)
        175680 MiB available memory on the node where the printing process lives
------------------
     ethr =  1.38E-09,  avg # of iterations =  2.0


     -----------------------------------------------
     Non-local corr. energy    =       1.64981827 Ry
     -----------------------------------------------


     Magnetic moment per site  (integrated on atomic sphere of radius R)
     atom   1 (R=1.555)  charge= 15.1917  magn=  1.5447
     atom   2 (R=1.555)  charge= 15.1918  magn=  1.5447
     atom   3 (R=0.983)  charge=  1.1718  magn=  0.0015
     atom   4 (R=0.983)  charge=  1.1718  magn=  0.0015
     atom   5 (R=0.983)  charge=  1.1718  magn=  0.0015
     atom   6 (R=0.983)  charge=  1.1718  magn=  0.0015
     atom   7 (R=0.983)  charge=  2.9962  magn=  0.0812
     atom   8 (R=0.983)  charge=  2.9961  magn=  0.0812
     atom   9 (R=0.983)  charge=  2.9961  magn=  0.0812
     atom  10 (R=0.983)  charge=  2.9961  magn=  0.0812
     atom  11 (R=0.983)  charge=  3.0145  magn=  0.0441
     atom  12 (R=0.983)  charge=  3.0145  magn=  0.0441
     atom  13 (R=0.983)  charge=  3.0144  magn=  0.0441
     atom  14 (R=0.983)  charge=  3.0144  magn=  0.0441

     total cpu time spent up to now is      189.2 secs

     End of self-consistent calculation

 ------ SPIN UP ------------


          k = 0.0260 0.0247-0.0397 ( 39432 PWs)   bands (ev):

   -95.4003 -95.3991 -56.2188 -56.2179 -56.1278 -56.1268 -55.9438 -55.9424
   -15.8884 -15.5728 -14.7054 -14.6541 -13.3156 -13.1823 -12.4227 -12.3798
    -4.1343  -3.5540  -1.1557  -0.8867  -0.7053  -0.6298  -0.0620   0.3111
     0.5900   0.8713   1.2605   1.5534   2.0012   2.7624   3.1241   3.2277
     3.7448   3.9945   4.1399   4.3557   4.4476   4.8550   5.0513   5.3628
     5.6249   5.9519   6.6080   6.6405   6.7928   6.8854   7.0442   7.2320
     7.3417   7.7066   8.2210   8.4237  11.2802  11.7134  14.9080  15.5445
    16.3729  17.2786  18.1078  18.4642  19.1740  19.6887  20.3586  20.5676
    21.3895

     occupation numbers 
     1.0000   1.0000   1.0000   1.0000   1.0000   1.0000   1.0000   1.0000
     1.0000   1.0000   1.0000   1.0000   1.0000   1.0000   1.0000   1.0000
     1.0000   1.0000   1.0000   1.0000   1.0000   1.0000   1.0000   1.0000
     1.0000   1.0000   1.0000   1.0000   1.0000   1.0000   1.0000   1.0000
     1.0000   1.0000   1.0000   1.0000   1.0000   1.0000   1.0000   1.0000
     1.0000   1.0000   1.0000   1.0000   1.0000   1.0000   1.0000   1.0000
     1.0000   1.0000   1.0000   1.0000   0.0000   0.0000   0.0000   0.0000
     0.0000   0.0000   0.0000   0.0000   0.0000   0.0000   0.0000   0.0000
     0.0000

          k = 0.0260 0.0247 0.0110 ( 39419 PWs)   bands (ev):

   -95.4003 -95.3991 -56.2188 -56.2179 -56.1278 -56.1268 -55.9438 -55.9424
   -15.9518 -15.5266 -14.7081 -14.6392 -13.2605 -13.2074 -12.4130 -12.3957
    -4.1235  -3.5632  -1.1180  -0.9578  -0.6582  -0.5391  -0.0522   0.2420
     0.4409   0.9001   1.0710   1.4090   1.8006   2.8966   3.1146   3.1918
     3.7817   3.9455   4.2066   4.6160   4.7491   4.8400   5.2583   5.3275
     5.6270   5.9098   6.5637   6.7464   6.8416   6.9357   6.9967   7.0823
     7.2099   7.8961   8.1546   8.4261  11.4132  11.6829  15.0536  15.2932
    15.7916  17.6078  18.1941  18.8538  19.2181  19.6023  20.1450  20.4856
    21.2478

     occupation numbers 
     1.0000   1.0000   1.0000   1.0000   1.0000   1.0000   1.0000   1.0000
     1.0000   1.0000   1.0000   1.0000   1.0000   1.0000   1.0000   1.0000
     1.0000   1.0000   1.0000   1.0000   1.0000   1.0000   1.0000   1.0000
     1.0000   1.0000   1.0000   1.0000   1.0000   1.0000   1.0000   1.0000
     1.0000   1.0000   1.0000   1.0000   1.0000   1.0000   1.0000   1.0000
     1.0000   1.0000   1.0000   1.0000   1.0000   1.0000   1.0000   1.0000
     1.0000   1.0000   1.0000   1.0000   0.0000   0.0000   0.0000   0.0000
     0.0000   0.0000   0.0000   0.0000   0.0000   0.0000   0.0000   0.0000
     0.0000

          k =-0.0260 0.0247-0.0397 ( 39432 PWs)   bands (ev):

   -95.4003 -95.3991 -56.2188 -56.2179 -56.1278 -56.1268 -55.9438 -55.9424
   -15.8884 -15.5728 -14.7051 -14.6543 -13.3156 -13.1823 -12.4228 -12.3797
    -4.1344  -3.5539  -1.1557  -0.8867  -0.7053  -0.6298  -0.0619   0.3111
     0.5899   0.8713   1.2606   1.5534   2.0011   2.7624   3.1240   3.2278
     3.7448   3.9944   4.1398   4.3556   4.4477   4.8550   5.0513   5.3629
     5.6249   5.9519   6.6084   6.6403   6.7925   6.8859   7.0439   7.2320
     7.3415   7.7067   8.2212   8.4235  11.2802  11.7134  14.9080  15.5446
    16.3729  17.2787  18.1077  18.4643  19.1739  19.6886  20.3586  20.5676
    21.3893

     occupation numbers 
     1.0000   1.0000   1.0000   1.0000   1.0000   1.0000   1.0000   1.0000
     1.0000   1.0000   1.0000   1.0000   1.0000   1.0000   1.0000   1.0000
     1.0000   1.0000   1.0000   1.0000   1.0000   1.0000   1.0000   1.0000
     1.0000   1.0000   1.0000   1.0000   1.0000   1.0000   1.0000   1.0000
     1.0000   1.0000   1.0000   1.0000   1.0000   1.0000   1.0000   1.0000
     1.0000   1.0000   1.0000   1.0000   1.0000   1.0000   1.0000   1.0000
     1.0000   1.0000   1.0000   1.0000   0.0000   0.0000   0.0000   0.0000
     0.0000   0.0000   0.0000   0.0000   0.0000   0.0000   0.0000   0.0000
     0.0000

          k =-0.0260 0.0247 0.0110 ( 39419 PWs)   bands (ev):

   -95.4003 -95.3991 -56.2188 -56.2179 -56.1278 -56.1268 -55.9438 -55.9424
   -15.9518 -15.5265 -14.7083 -14.6390 -13.2606 -13.2073 -12.4129 -12.3958
    -4.1234  -3.5632  -1.1180  -0.9578  -0.6582  -0.5391  -0.0522   0.2420
     0.4409   0.9001   1.0709   1.4090   1.8006   2.8965   3.1148   3.1917
     3.7817   3.9457   4.2067   4.6159   4.7492   4.8399   5.2584   5.3274
     5.6270   5.9098   6.5637   6.7461   6.8416   6.9357   6.9969   7.0823
     7.2099   7.8962   8.1544   8.4262  11.4133  11.6829  15.0537  15.2931
    15.7916  17.6078  18.1941  18.8539  19.2180  19.6023  20.1449  20.4855
    21.2480

     occupation numbers 
     1.0000   1.0000   1.0000   1.0000   1.0000   1.0000   1.0000   1.0000
     1.0000   1.0000   1.0000   1.0000   1.0000   1.0000   1.0000   1.0000
     1.0000   1.0000   1.0000   1.0000   1.0000   1.0000   1.0000   1.0000
     1.0000   1.0000   1.0000   1.0000   1.0000   1.0000   1.0000   1.0000
     1.0000   1.0000   1.0000   1.0000   1.0000   1.0000   1.0000   1.0000
     1.0000   1.0000   1.0000   1.0000   1.0000   1.0000   1.0000   1.0000
     1.0000   1.0000   1.0000   1.0000   0.0000   0.0000   0.0000   0.0000
     0.0000   0.0000   0.0000   0.0000   0.0000   0.0000   0.0000   0.0000
     0.0000

 ------ SPIN DOWN ----------


          k = 0.0260 0.0247-0.0397 ( 39432 PWs)   bands (ev):

   -94.0081 -94.0072 -54.2954 -54.2948 -54.2547 -54.2538 -54.1594 -54.1587
   -15.7797 -15.4590 -14.5788 -14.5271 -13.1786 -13.0370 -12.2680 -12.2293
    -4.0500  -3.4650  -1.0048  -0.7393  -0.4802  -0.4521   0.1168   0.4695
     0.7538   1.0946   1.4477   1.7520   2.0824   2.8583   3.4944   3.7602
     4.1899   4.3627   4.4690   4.6765   5.1324   5.2219   5.3906   5.6690
     5.8680   6.3791   7.5463   7.6613   7.7559   7.7811   7.9011   8.0799
     9.6707   9.9680  10.4093  10.6045  11.3847  11.7897  14.9401  15.5762
    16.5793  17.4716  18.2222  18.5998  19.3069  19.7954  20.4403  20.6563
    21.4911

     occupation numbers 
     1.0000   1.0000   1.0000   1.0000   1.0000   1.0000   1.0000   1.0000
     1.0000   1.0000   1.0000   1.0000   1.0000   1.0000   1.0000   1.0000
     1.0000   1.0000   1.0000   1.0000   1.0000   1.0000   1.0000   1.0000
     1.0000   1.0000   1.0000   1.0000   1.0000   1.0000   1.0000   1.0000
     1.0000   1.0000   1.0000   1.0000   1.0000   1.0000   1.0000   1.0000
     1.0000   1.0000   1.0000   1.0000   1.0000   1.0000   1.0000   1.0000
     0.0000   0.0000   0.0000   0.0000   0.0000   0.0000   0.0000   0.0000
     0.0000   0.0000   0.0000   0.0000   0.0000   0.0000   0.0000   0.0000
     0.0000

          k = 0.0260 0.0247 0.0110 ( 39419 PWs)   bands (ev):

   -94.0081 -94.0072 -54.2954 -54.2948 -54.2547 -54.2538 -54.1594 -54.1587
   -15.8431 -15.4128 -14.5817 -14.5124 -13.1171 -13.0679 -12.2619 -12.2415
    -4.0371  -3.4754  -0.9537  -0.7921  -0.4342  -0.3728   0.1213   0.3793
     0.5656   1.0920   1.2488   1.6001   1.9536   2.9849   3.5272   3.7537
     4.2579   4.3828   4.8591   4.8970   5.0183   5.3157   5.5055   5.5436
     5.9689   6.2720   7.5609   7.6963   7.7628   7.8185   7.9130   7.9262
     9.5840  10.1021  10.4310  10.6268  11.4812  11.7488  15.0836  15.3266
    15.9630  17.8613  18.2757  19.0089  19.3078  19.7580  20.2315  20.5796
    21.3436

     occupation numbers 
     1.0000   1.0000   1.0000   1.0000   1.0000   1.0000   1.0000   1.0000
     1.0000   1.0000   1.0000   1.0000   1.0000   1.0000   1.0000   1.0000
     1.0000   1.0000   1.0000   1.0000   1.0000   1.0000   1.0000   1.0000
     1.0000   1.0000   1.0000   1.0000   1.0000   1.0000   1.0000   1.0000
     1.0000   1.0000   1.0000   1.0000   1.0000   1.0000   1.0000   1.0000
     1.0000   1.0000   1.0000   1.0000   1.0000   1.0000   1.0000   1.0000
     0.0000   0.0000   0.0000   0.0000   0.0000   0.0000   0.0000   0.0000
     0.0000   0.0000   0.0000   0.0000   0.0000   0.0000   0.0000   0.0000
     0.0000

          k =-0.0260 0.0247-0.0397 ( 39432 PWs)   bands (ev):

   -94.0081 -94.0072 -54.2954 -54.2948 -54.2547 -54.2538 -54.1594 -54.1587
   -15.7797 -15.4590 -14.5786 -14.5273 -13.1786 -13.0370 -12.2681 -12.2293
    -4.0500  -3.4649  -1.0049  -0.7392  -0.4802  -0.4522   0.1170   0.4695
     0.7537   1.0946   1.4478   1.7519   2.0824   2.8583   3.4943   3.7604
     4.1900   4.3625   4.4690   4.6764   5.1322   5.2219   5.3907   5.6691
     5.8681   6.3790   7.5461   7.6616   7.7555   7.7816   7.9008   8.0800
     9.6707   9.9679  10.4094  10.6045  11.3847  11.7897  14.9402  15.5762
    16.5793  17.4717  18.2221  18.5999  19.3068  19.7953  20.4403  20.6563
    21.4902

     occupation numbers 
     1.0000   1.0000   1.0000   1.0000   1.0000   1.0000   1.0000   1.0000
     1.0000   1.0000   1.0000   1.0000   1.0000   1.0000   1.0000   1.0000
     1.0000   1.0000   1.0000   1.0000   1.0000   1.0000   1.0000   1.0000
     1.0000   1.0000   1.0000   1.0000   1.0000   1.0000   1.0000   1.0000
     1.0000   1.0000   1.0000   1.0000   1.0000   1.0000   1.0000   1.0000
     1.0000   1.0000   1.0000   1.0000   1.0000   1.0000   1.0000   1.0000
     0.0000   0.0000   0.0000   0.0000   0.0000   0.0000   0.0000   0.0000
     0.0000   0.0000   0.0000   0.0000   0.0000   0.0000   0.0000   0.0000
     0.0000

          k =-0.0260 0.0247 0.0110 ( 39419 PWs)   bands (ev):

   -94.0081 -94.0072 -54.2954 -54.2948 -54.2547 -54.2538 -54.1594 -54.1587
   -15.8431 -15.4128 -14.5818 -14.5123 -13.1171 -13.0678 -12.2618 -12.2416
    -4.0370  -3.4754  -0.9537  -0.7921  -0.4340  -0.3728   0.1213   0.3792
     0.5656   1.0920   1.2487   1.6001   1.9536   2.9848   3.5273   3.7536
     4.2578   4.3830   4.8591   4.8971   5.0184   5.3156   5.5055   5.5437
     5.9689   6.2720   7.5609   7.6963   7.7630   7.8185   7.9127   7.9264
     9.5840  10.1022  10.4310  10.6267  11.4812  11.7487  15.0837  15.3266
    15.9630  17.8613  18.2757  19.0090  19.3077  19.7581  20.2314  20.5796
    21.3436

     occupation numbers 
     1.0000   1.0000   1.0000   1.0000   1.0000   1.0000   1.0000   1.0000
     1.0000   1.0000   1.0000   1.0000   1.0000   1.0000   1.0000   1.0000
     1.0000   1.0000   1.0000   1.0000   1.0000   1.0000   1.0000   1.0000
     1.0000   1.0000   1.0000   1.0000   1.0000   1.0000   1.0000   1.0000
     1.0000   1.0000   1.0000   1.0000   1.0000   1.0000   1.0000   1.0000
     1.0000   1.0000   1.0000   1.0000   1.0000   1.0000   1.0000   1.0000
     0.0000   0.0000   0.0000   0.0000   0.0000   0.0000   0.0000   0.0000
     0.0000   0.0000   0.0000   0.0000   0.0000   0.0000   0.0000   0.0000
     0.0000

     the Fermi energy is     9.0118 ev

!    total energy              =    -940.71795378 Ry
     estimated scf accuracy    <       0.00000014 Ry
     smearing contrib. (-TS)   =      -0.00000000 Ry
     internal energy E=F+TS    =    -940.71795378 Ry

     The total energy is F=E-TS. E is the sum of the following terms:
     one-electron contribution =    -536.28984993 Ry
     hartree contribution      =     319.36759585 Ry
     xc contribution           =    -163.64960800 Ry
     ewald contribution        =    -560.14609169 Ry

     total magnetization       =     4.00 Bohr mag/cell
     absolute magnetization    =     4.11 Bohr mag/cell

     convergence has been achieved in  18 iterations


     -----------------------------------------------
     Non-local corr. energy    =       1.64981827 Ry
     -----------------------------------------------


     Forces acting on atoms (cartesian axes, Ry/au):

     atom    1 type  1   force =    -0.00001212    0.00006825    0.00000780
     atom    2 type  1   force =    -0.00000620   -0.00001322   -0.00001837
     atom    3 type  2   force =    -0.05320400   -0.00301630   -0.04099325
     atom    4 type  2   force =    -0.05322095    0.00300761    0.04101282
     atom    5 type  2   force =     0.05321300    0.00298233    0.04099881
     atom    6 type  2   force =     0.05322813   -0.00300700   -0.04100124
     atom    7 type  3   force =    -0.06864234    0.15291790   -0.07135281
     atom    8 type  3   force =    -0.06862752   -0.15291166    0.07134294
     atom    9 type  3   force =     0.06864482   -0.15292938    0.07135463
     atom   10 type  3   force =     0.06863416    0.15292353   -0.07134359
     atom   11 type  3   force =     0.09556970    0.14975109    0.04255159
     atom   12 type  3   force =     0.09554736   -0.14976671   -0.04253950
     atom   13 type  3   force =    -0.09557998   -0.14977196   -0.04255824
     atom   14 type  3   force =    -0.09554407    0.14976551    0.04253840
     The non-local contrib.  to forces
     atom    1 type  1   force =     0.00001021   -0.00005486   -0.00001220
     atom    2 type  1   force =     0.00001066    0.00002478    0.00003898
     atom    3 type  2   force =     0.24505087    0.00274028    0.18182845
     atom    4 type  2   force =     0.24504892   -0.00276376   -0.18181867
     atom    5 type  2   force =    -0.24504455   -0.00270429   -0.18182489
     atom    6 type  2   force =    -0.24504296    0.00274544    0.18183095
     atom    7 type  3   force =     0.71972273   -1.58459314    0.73209662
     atom    8 type  3   force =     0.71973026    1.58451240   -0.73212215
     atom    9 type  3   force =    -0.71970208    1.58456291   -0.73207244
     atom   10 type  3   force =    -0.71972433   -1.58451726    0.73211077
     atom   11 type  3   force =    -1.11376448   -1.62614965   -0.54241669
     atom   12 type  3   force =    -1.11377929    1.62608079    0.54240682
     atom   13 type  3   force =     1.11374672    1.62611280    0.54240690
     atom   14 type  3   force =     1.11377398   -1.62606271   -0.54241390
     The ionic contribution  to forces
     atom    1 type  1   force =    -0.00000000    0.00000000   -0.00000000
     atom    2 type  1   force =     0.00000000    0.00000000   -0.00000000
     atom    3 type  2   force =    -1.23194255   -0.17201108   -1.10056716
     atom    4 type  2   force =    -1.23194255    0.17201108    1.10056716
     atom    5 type  2   force =     1.23194255    0.17201108    1.10056716
     atom    6 type  2   force =     1.23194255   -0.17201108   -1.10056716
     atom    7 type  3   force =    -3.47407899    2.05291193   -2.41549511
     atom    8 type  3   force =    -3.47407899   -2.05291193    2.41549511
     atom    9 type  3   force =     3.47407899   -2.05291193    2.41549511
     atom   10 type  3   force =     3.47407899    2.05291193   -2.41549511
     atom   11 type  3   force =     9.02978483    1.41052562    4.31748709
     atom   12 type  3   force =     9.02978483   -1.41052562   -4.31748709
     atom   13 type  3   force =    -9.02978483   -1.41052562   -4.31748709
     atom   14 type  3   force =    -9.02978483    1.41052562    4.31748709
     The local contribution  to forces
     atom    1 type  1   force =     0.00011809   -0.00059587   -0.00004864
     atom    2 type  1   force =     0.00008937    0.00019974    0.00022828
     atom    3 type  2   force =     0.93670192    0.16401317    0.88024141
     atom    4 type  2   force =     0.93668596   -0.16396731   -0.88028077
     atom    5 type  2   force =    -0.93668889   -0.16365982   -0.88025365
     atom    6 type  2   force =    -0.93672220    0.16385672    0.88020565
     atom    7 type  3   force =     2.70197373   -0.35101734    1.62844324
     atom    8 type  3   force =     2.70199298    0.35095876   -1.62851305
     atom    9 type  3   force =    -2.70198435    0.35119698   -1.62842899
     atom   10 type  3   force =    -2.70200370   -0.35109731    1.62849713
     atom   11 type  3   force =    -7.84863623    0.33016735   -3.74685890
     atom   12 type  3   force =    -7.84858585   -0.33033349    3.74678365
     atom   13 type  3   force =     7.84864053   -0.33003440    3.74680776
     atom   14 type  3   force =     7.84857946    0.33035040   -3.74678544
     The core correction contribution to forces
     atom    1 type  1   force =     0.00000013   -0.00000018    0.00000034
     atom    2 type  1   force =     0.00000002   -0.00000000   -0.00000044
     atom    3 type  2   force =    -0.00300679    0.00251159   -0.00251394
     atom    4 type  2   force =    -0.00300724   -0.00251004    0.00251359
     atom    5 type  2   force =     0.00300670   -0.00251396    0.00251403
     atom    6 type  2   force =     0.00300670    0.00251087   -0.00251462
     atom    7 type  3   force =    -0.01626855    0.03561056   -0.01641947
     atom    8 type  3   force =    -0.01626877   -0.03560652    0.01642038
     atom    9 type  3   force =     0.01626775   -0.03560836    0.01641867
     atom   10 type  3   force =     0.01626864    0.03560656   -0.01642005
     atom   11 type  3   force =     0.02816320    0.03517276    0.01428154
     atom   12 type  3   force =     0.02816425   -0.03517060   -0.01428156
     atom   13 type  3   force =    -0.02816328   -0.03517131   -0.01428188
     atom   14 type  3   force =    -0.02816407    0.03516989    0.01428191
     The Hubbard contrib.    to forces
     atom    1 type  1   force =     0.00000000    0.00000000    0.00000000
     atom    2 type  1   force =     0.00000000    0.00000000    0.00000000
     atom    3 type  2   force =     0.00000000    0.00000000    0.00000000
     atom    4 type  2   force =     0.00000000    0.00000000    0.00000000
     atom    5 type  2   force =     0.00000000    0.00000000    0.00000000
     atom    6 type  2   force =     0.00000000    0.00000000    0.00000000
     atom    7 type  3   force =     0.00000000    0.00000000    0.00000000
     atom    8 type  3   force =     0.00000000    0.00000000    0.00000000
     atom    9 type  3   force =     0.00000000    0.00000000    0.00000000
     atom   10 type  3   force =     0.00000000    0.00000000    0.00000000
     atom   11 type  3   force =     0.00000000    0.00000000    0.00000000
     atom   12 type  3   force =     0.00000000    0.00000000    0.00000000
     atom   13 type  3   force =     0.00000000    0.00000000    0.00000000
     atom   14 type  3   force =     0.00000000    0.00000000    0.00000000
     The SCF correction term to forces
     atom    1 type  1   force =    -0.00014202    0.00072016    0.00006760
     atom    2 type  1   force =    -0.00010773   -0.00023673   -0.00028591
     atom    3 type  2   force =    -0.00000893   -0.00026926    0.00001728
     atom    4 type  2   force =    -0.00000752    0.00023863    0.00003080
     atom    5 type  2   force =    -0.00000429   -0.00014967   -0.00000455
     atom    6 type  2   force =     0.00004256   -0.00010794    0.00004324
     atom    7 type  3   force =     0.00000726    0.00000690    0.00002119
     atom    8 type  3   force =    -0.00000447    0.00013662    0.00006194
     atom    9 type  3   force =    -0.00001697   -0.00016798   -0.00005843
     atom   10 type  3   force =     0.00001309    0.00002062   -0.00003705
     atom   11 type  3   force =     0.00002089    0.00003601    0.00005783
     atom   12 type  3   force =    -0.00003807    0.00018321    0.00003796
     atom   13 type  3   force =    -0.00002059   -0.00015244   -0.00000465
     atom   14 type  3   force =     0.00004992   -0.00021668   -0.00003197

     Total force =     0.533216     Total SCF correction =     0.001017


     Computing stress (Cartesian axis) and pressure



     -----------------------------------------------
     Non-local corr. energy    =       1.64981827 Ry
     -----------------------------------------------

          total   stress  (Ry/bohr**3)                   (kbar)     P=      415.67
   0.00198809  -0.00000004  -0.00000011          292.46       -0.01       -0.02
  -0.00000004   0.00486555  -0.00036381           -0.01      715.75      -53.52
  -0.00000011  -0.00036381   0.00162327           -0.02      -53.52      238.79

     kinetic stress (kbar)  57413.45     -0.01      0.01
                               -0.01  54841.14    180.05
                                0.01    180.05  57395.51

     local   stress (kbar) -11343.02     -0.03     -0.07
                               -0.03 -57816.65   3459.86
                               -0.07   3459.86  -6683.24

     nonloc. stress (kbar)  -8079.50     -0.01     -0.00
                               -0.01  -7822.75     -0.19
                               -0.00     -0.19  -7979.54

     hartree stress (kbar)  14055.72      0.04      0.05
                                0.04  30095.99   -939.95
                                0.05   -939.95  12778.56

     exc-cor stress (kbar)  -3437.31     -0.00      0.00
                               -0.00  -3298.63    -18.58
                                0.00    -18.58  -3471.78

     corecor stress (kbar)  -5290.72     -0.00     -0.00
                               -0.00  -5289.40      1.34
                               -0.00      1.34  -5279.44

     ewald   stress (kbar) -43139.15      0.00     -0.00
                                0.00 -10071.93  -2739.87
                               -0.00  -2739.87 -46640.22

     hubbard stress (kbar)      0.00      0.00      0.00
                                0.00      0.00      0.00
                                0.00      0.00      0.00

     DFT-D   stress (kbar)      0.00      0.00      0.00
                                0.00      0.00      0.00
                                0.00      0.00      0.00

     XDM     stress (kbar)      0.00      0.00      0.00
                                0.00      0.00      0.00
                                0.00      0.00      0.00

     dft-nl  stress (kbar)    112.99      0.00      0.00
                                0.00     77.97      3.82
                                0.00      3.82    118.94

     TS-vdW  stress (kbar)      0.00      0.00      0.00
                                0.00      0.00      0.00
                                0.00      0.00      0.00


                                0.00      0.00      0.00
                                0.00      0.00      0.00


                                0.00      0.00      0.00


     Writing all to output data dir ./calc.save/

     init_run     :     30.15s CPU     30.38s WALL (       1 calls)
     electrons    :    153.60s CPU    158.72s WALL (       1 calls)
     forces       :     11.16s CPU     11.22s WALL (       1 calls)
     stress       :     30.07s CPU     30.18s WALL (       1 calls)

     Called by init_run:
     wfcinit      :      2.40s CPU      2.50s WALL (       1 calls)
     wfcinit:wfcr :      2.09s CPU      2.19s WALL (       8 calls)
     potinit      :     17.99s CPU     18.08s WALL (       1 calls)
     hinit0       :      9.67s CPU      9.71s WALL (       1 calls)

     Called by electrons:
     c_bands      :    122.60s CPU    126.60s WALL (      18 calls)
     sum_band     :     17.08s CPU     17.70s WALL (      18 calls)
     v_of_rho     :     26.58s CPU     27.08s WALL (      19 calls)
     v_h          :      0.07s CPU      0.07s WALL (      19 calls)
     v_xc         :     27.98s CPU     28.52s WALL (      21 calls)
     mix_rho      :      0.49s CPU      0.49s WALL (      18 calls)
     vdW_kernel   :     12.51s CPU     12.54s WALL (       1 calls)

     Called by c_bands:
     init_us_2    :      1.58s CPU      1.58s WALL (     312 calls)
     init_us_2:cp :      1.57s CPU      1.58s WALL (     312 calls)
     cegterg      :    116.59s CPU    120.58s WALL (     144 calls)

     Called by sum_band:
     sum_band:wei :      0.00s CPU      0.00s WALL (      18 calls)
     sum_band:loo :     16.88s CPU     17.48s WALL (      18 calls)
     sum_band:buf :      0.18s CPU      0.18s WALL (     144 calls)
     sum_band:ini :      0.72s CPU      0.73s WALL (     144 calls)

     Called by *egterg:
     cdiaghg      :      2.56s CPU      2.61s WALL (     713 calls)
     cegterg:over :      5.96s CPU      6.00s WALL (     569 calls)
     cegterg:upda :      4.26s CPU      4.28s WALL (     569 calls)
     cegterg:last :      6.09s CPU      6.12s WALL (     341 calls)
     cdiaghg:chol :      0.16s CPU      0.16s WALL (     713 calls)
     cdiaghg:inve :      0.04s CPU      0.04s WALL (     713 calls)
     cdiaghg:para :      0.35s CPU      0.37s WALL (    1426 calls)
     h_psi        :     97.05s CPU    100.97s WALL (     721 calls)
     g_psi        :      0.58s CPU      0.58s WALL (     569 calls)

     Called by h_psi:
     h_psi:calbec :      6.18s CPU      6.26s WALL (     721 calls)
     vloc_psi     :     84.24s CPU     88.06s WALL (     721 calls)
     add_vuspsi   :      6.14s CPU      6.16s WALL (     721 calls)

     General routines
     calbec       :      6.77s CPU      6.85s WALL (     761 calls)
     fft          :      4.70s CPU      5.19s WALL (    1797 calls)
     ffts         :      0.08s CPU      0.09s WALL (      36 calls)
     fftw         :     89.55s CPU     93.68s WALL (   60900 calls)

     Parallel routines

     PWSCF        :   3m45.18s CPU   3m51.46s WALL


   This run was terminated on:  15:57:24  25Oct2022            

=------------------------------------------------------------------------------=
   JOB DONE.
=------------------------------------------------------------------------------=
