
     Program PWSCF v.7.0 starts on 28Oct2022 at 11: 2:41 

     This program is part of the open-source Quantum ESPRESSO suite
     for quantum simulation of materials; please cite
         "P. Giannozzi et al., J. Phys.:Condens. Matter 21 395502 (2009);
         "P. Giannozzi et al., J. Phys.:Condens. Matter 29 465901 (2017);
         "P. Giannozzi et al., J. Chem. Phys. 152 154105 (2020);
          URL http://www.quantum-espresso.org", 
     in publications or presentations arising from this work. More details at
     http://www.quantum-espresso.org/quote

     Parallel version (MPI), running on     8 processors

     MPI processes distributed on     1 nodes
     R & G space division:  proc/nbgrp/npool/nimage =       8
     175779 MiB available memory on the printing compute node when the environment starts

     Reading input from pw.inp

     Current dimensions of program PWSCF are:
     Max number of different atomic species (ntypx) = 10
     Max number of k-points (npk) =  40000
     Max angular momentum in pseudopotentials (lmaxx) =  4
     Message from routine cell_base_init:
     DEPRECATED: use true lattice parameter, not A to a.u. conversion factor

     IMPORTANT: XC functional enforced from input :
     Exchange-correlation= PBE
                           (   1   4   3   4   0   0   0)
     Any further DFT definition will be discarded
     Please, verify this is what you really want


     --------------------------------------------
     DFT-D3 Dispersion Correction (3-body terms):
     --------------------------------------------
       Reference C6 values for interpolation: 

         atom   Coordination number   C6
         H          0.912             6.05
         H          0.000            15.18
         C          0.000            98.23
         C          0.987            86.49
         C          1.998            58.72
         C          2.999            51.56
         C          3.984            36.41
         N          0.000            50.54
         N          0.994            44.25
         N          2.014            39.35
         N          2.990            31.16
         O          0.000            31.01
         O          0.993            25.63
         O          1.989            20.74
         S          0.000           268.01
         S          0.995           261.99
         S          1.990           251.62
         Cl         0.000           184.69
         Cl         0.997           180.80

       Values used:

         atom   Coordination number  R0_AB[au]  C6      C8
         Cl         1.181            2.933    180.81   7544.19
         S          4.387            3.128    251.62  12327.25
         O          1.027            2.345     25.58    516.18
         O          1.027            2.345     25.58    516.20
         N          3.178            2.478     31.20    688.35
         N          2.117            2.478     38.98    859.87
         C          3.206            2.750     49.99   1445.69
         C          3.274            2.750     49.03   1418.11
         C          3.256            2.750     49.33   1426.69
         C          3.301            2.750     48.54   1403.88
         C          3.170            2.750     50.36   1456.62
         C          3.139            2.750     50.62   1463.99
         C          3.211            2.750     49.93   1444.20
         C          4.057            2.750     36.57   1057.55
         H          1.014            2.062      6.17     74.57
         H          1.007            2.062      6.17     74.64
         H          1.003            2.062      6.18     74.69
         H          1.005            2.062      6.18     74.67
         H          0.998            2.062      6.18     74.75
         H          0.999            2.062      6.18     74.73
         H          0.998            2.062      6.18     74.75

         Molecular C6 ( Ry / a.u.^6 ) =     15295.16


     Subspace diagonalization in iterative solution of the eigenvalue problem:
     one sub-group per band group will be used
     scalapack distributed-memory algorithm (size of sub-group:  2*  2 procs)


     Parallelization info
     --------------------
     sticks:   dense  smooth     PW     G-vecs:    dense   smooth      PW
     Min        9932    9932   2483              1314117  1314117  164264
     Max        9934    9934   2484              1314119  1314119  164265
     Sum       79463   79463  19867             10512945 10512945 1314117

     Using Slab Decomposition



     bravais-lattice index     =            0
     lattice parameter (alat)  =       1.0000  a.u.
     unit-cell volume          =   14976.0000 (a.u.)^3
     number of atoms/cell      =           21
     number of atomic types    =            6
     number of electrons       =        74.00
     number of Kohn-Sham states=           49
     kinetic-energy cutoff     =     300.0000  Ry
     charge density cutoff     =    1200.0000  Ry
     scf convergence threshold =      1.0E-06
     mixing beta               =       0.7000
     number of iterations used =            8  plain     mixing
     Exchange-correlation= PBE
                           (   1   4   3   4   0   0   0)

     celldm(1)=   1.000000  celldm(2)=   0.000000  celldm(3)=   0.000000
     celldm(4)=   0.000000  celldm(5)=   0.000000  celldm(6)=   0.000000

     crystal axes: (cart. coord. in units of alat)
               a(1) = (  32.000000   0.000000   0.000000 )  
               a(2) = (   0.000000  26.000000   0.000000 )  
               a(3) = (   0.000000   0.000000  18.000000 )  

     reciprocal axes: (cart. coord. in units 2 pi/alat)
               b(1) = (  0.031250  0.000000  0.000000 )  
               b(2) = (  0.000000  0.038462  0.000000 )  
               b(3) = (  0.000000  0.000000  0.055556 )  


     PseudoPot. # 1 for Cl read from file:
     ./17_Cl_7_1.9_1.9_pbe_n_v1.0.upf
     MD5 check sum: 4b479bbce882a1e8c6afec844a833f83
     Pseudo is Norm-conserving + core correction, Zval =  7.0
     Generated using ONCVPSP code by D. R. Hamann
     Using radial grid of 1030 points,  6 beta functions with: 
                l(1) =   0
                l(2) =   0
                l(3) =   1
                l(4) =   1
                l(5) =   2
                l(6) =   2

     PseudoPot. # 2 for S  read from file:
     ./16_S_6_1.8_1.9_pbe_n_v1.0.upf
     MD5 check sum: cf35f2901fab9c98bf1da7c7b8241e72
     Pseudo is Norm-conserving + core correction, Zval =  6.0
     Generated using ONCVPSP code by D. R. Hamann
     Using radial grid of 1148 points,  6 beta functions with: 
                l(1) =   0
                l(2) =   0
                l(3) =   1
                l(4) =   1
                l(5) =   2
                l(6) =   2

     PseudoPot. # 3 for O  read from file:
     ./08_O_6_1.2_1.4_pbe_n_v1.0.upf
     MD5 check sum: a8b7f44dbbd6106bf79c6036dc5c6a43
     Pseudo is Norm-conserving + core correction, Zval =  6.0
     Generated using ONCVPSP code by D. R. Hamann
     Using radial grid of  934 points,  5 beta functions with: 
                l(1) =   0
                l(2) =   0
                l(3) =   1
                l(4) =   1
                l(5) =   2

     PseudoPot. # 4 for N  read from file:
     ./07_N_5_1.2_1.4_pbe_n_v1.0.upf
     MD5 check sum: fa367e48d0ba0d9eaa17cc4c073b607a
     Pseudo is Norm-conserving + core correction, Zval =  5.0
     Generated using ONCVPSP code by D. R. Hamann
     Using radial grid of 1066 points,  4 beta functions with: 
                l(1) =   0
                l(2) =   0
                l(3) =   1
                l(4) =   1

     PseudoPot. # 5 for C  read from file:
     ./06_C_4_1.2_1.2_pbe_n_v1.0.upf
     MD5 check sum: 7e0e17a2517474b8bea671dc4b65026c
     Pseudo is Norm-conserving + core correction, Zval =  4.0
     Generated using ONCVPSP code by D. R. Hamann
     Using radial grid of 1246 points,  4 beta functions with: 
                l(1) =   0
                l(2) =   0
                l(3) =   1
                l(4) =   1

     PseudoPot. # 6 for H  read from file:
     ./01_H_1_1.0_1.0_pbe_v1.0.upf
     MD5 check sum: 0525db1cbf2014e1c0f619542a674daf
     Pseudo is Norm-conserving, Zval =  1.0
     Generated using ONCVPSP code by D. R. Hamann
     Using radial grid of 1160 points,  3 beta functions with: 
                l(1) =   0
                l(2) =   0
                l(3) =   1

     atomic species   valence    mass     pseudopotential
        Cl             7.00    35.00000     Cl( 1.00)
        S              6.00    32.00000     S ( 1.00)
        O              6.00    16.00000     O ( 1.00)
        N              5.00    14.00000     N ( 1.00)
        C              4.00    12.00000     C ( 1.00)
        H              1.00     1.00000     H ( 1.00)

     No symmetry found


                                    s                        frac. trans.

      isym =  1     identity                                     

 cryst.   s( 1) = (     1          0          0      )
                  (     0          1          0      )
                  (     0          0          1      )

 cart.    s( 1) = (  1.0000000  0.0000000  0.0000000 )
                  (  0.0000000  1.0000000  0.0000000 )
                  (  0.0000000  0.0000000  1.0000000 )


   Cartesian axes

     site n.     atom                  positions (alat units)
         1           Cl  tau(   1) = (  24.6247588  11.6716914  10.7975250  )
         2           S   tau(   2) = (  14.4994956   9.8134177  10.7190131  )
         3           O   tau(   3) = (  14.5561094   8.5355658   8.3100728  )
         4           O   tau(   4) = (  14.5609366   8.3497635  13.0175010  )
         5           N   tau(   5) = (  14.1086289  15.5134653  10.7855592  )
         6           N   tau(   6) = (  11.9480745  11.5903831  10.7837649  )
         7           C   tau(   7) = (  17.0575273  11.9986203  10.7838070  )
         8           C   tau(   8) = (  16.5812791  14.6066315  10.7902394  )
         9           C   tau(   9) = (  11.9759072  14.0390044  10.7892351  )
        10           C   tau(  10) = (  19.5330441  11.0815074  10.7902973  )
        11           C   tau(  11) = (  18.6268739  16.2973019  10.8005648  )
        12           C   tau(  12) = (  21.5331048  12.7850259  10.7977756  )
        13           C   tau(  13) = (  21.0887866  15.3959354  10.8020276  )
        14           C   tau(  14) = (   9.5209661  15.4656137  10.7996198  )
        15           H   tau(  15) = (  13.8679860  17.4115572  10.8005714  )
        16           H   tau(  16) = (  19.8741359   9.0561732  10.7837509  )
        17           H   tau(  17) = (  18.2810591  18.3284335  10.8057441  )
        18           H   tau(  18) = (  22.6759814  16.7011580  10.8068072  )
        19           H   tau(  19) = (   9.3729009  16.6647540  12.4862362  )
        20           H   tau(  20) = (   7.9504222  14.1283195  10.7883226  )
        21           H   tau(  21) = (   9.3755895  16.6869265   9.1281667  )

   Crystallographic axes

     site n.     atom                  positions (cryst. coord.)
         1           Cl  tau(   1) = (  0.7695237  0.4489112  0.5998625  )
         2           S   tau(   2) = (  0.4531092  0.3774391  0.5955007  )
         3           O   tau(   3) = (  0.4548784  0.3282910  0.4616707  )
         4           O   tau(   4) = (  0.4550293  0.3211448  0.7231945  )
         5           N   tau(   5) = (  0.4408947  0.5966717  0.5991977  )
         6           N   tau(   6) = (  0.3733773  0.4457840  0.5990980  )
         7           C   tau(   7) = (  0.5330477  0.4614854  0.5991004  )
         8           C   tau(   8) = (  0.5181650  0.5617935  0.5994577  )
         9           C   tau(   9) = (  0.3742471  0.5399617  0.5994020  )
        10           C   tau(  10) = (  0.6104076  0.4262118  0.5994610  )
        11           C   tau(  11) = (  0.5820898  0.6268193  0.6000314  )
        12           C   tau(  12) = (  0.6729095  0.4917318  0.5998764  )
        13           C   tau(  13) = (  0.6590246  0.5921514  0.6001126  )
        14           C   tau(  14) = (  0.2975302  0.5948313  0.5999789  )
        15           H   tau(  15) = (  0.4333746  0.6696753  0.6000317  )
        16           H   tau(  16) = (  0.6210667  0.3483144  0.5990973  )
        17           H   tau(  17) = (  0.5712831  0.7049398  0.6003191  )
        18           H   tau(  18) = (  0.7086244  0.6423522  0.6003782  )
        19           H   tau(  19) = (  0.2929032  0.6409521  0.6936798  )
        20           H   tau(  20) = (  0.2484507  0.5433969  0.5993513  )
        21           H   tau(  21) = (  0.2929872  0.6418049  0.5071204  )

     number of k points=     1  Fermi-Dirac smearing, width (Ry)=  0.0020
                       cart. coord. in units 2pi/alat
        k(    1) = (   0.0000000   0.0000000   0.0000000), wk =   2.0000000

                       cryst. coord.
        k(    1) = (   0.0000000   0.0000000   0.0000000), wk =   2.0000000

     Dense  grid: 10512945 G-vectors     FFT dimensions: ( 360, 288, 200)

     Dynamical RAM for                 wfc:     122.81 MB

     Dynamical RAM for     wfc (w. buffer):     122.81 MB

     Dynamical RAM for           str. fact:     120.31 MB

     Dynamical RAM for           local pot:       0.00 MB

     Dynamical RAM for          nlocal pot:     443.64 MB

     Dynamical RAM for                qrad:      16.67 MB

     Dynamical RAM for          rho,v,vnew:     119.48 MB

     Dynamical RAM for               rhoin:      39.83 MB

     Dynamical RAM for            rho*nmix:     320.83 MB

     Dynamical RAM for           G-vectors:      85.22 MB

     Dynamical RAM for          h,s,v(r/c):       0.11 MB

     Dynamical RAM for          <psi|beta>:       0.13 MB

     Dynamical RAM for                 psi:     245.63 MB

     Dynamical RAM for                hpsi:     245.63 MB

     Dynamical RAM for      wfcinit/wfcrot:     245.68 MB

     Estimated static dynamical RAM per process >       1.16 GB

     Estimated max dynamical RAM per process >       1.95 GB

     Estimated total dynamical RAM >      15.62 GB

     Initial potential from superposition of free atoms

     starting charge      73.9995, renormalised to      74.0000

     negative rho (up, down):  1.828E-06 0.000E+00
     Starting wfcs are random

     total cpu time spent up to now is      430.7 secs

     per-process dynamical memory:  1503.9 Mb

     Self-consistent Calculation

     iteration #  1     ecut=   300.00 Ry     beta= 0.70
     Davidson diagonalization with overlap

---- Real-time Memory Report at c_bands before calling an iterative solver
          1433 MiB given to the printing process from OS
          1468 MiB allocation reported by mallinfo(arena+hblkhd)
        160143 MiB available memory on the node where the printing process lives
------------------
     ethr =  1.00E-02,  avg # of iterations = 16.0

     total cpu time spent up to now is      542.5 secs

     total energy              =    -266.12819702 Ry
     estimated scf accuracy    <       2.44727472 Ry

     iteration #  2     ecut=   300.00 Ry     beta= 0.70
     Davidson diagonalization with overlap

---- Real-time Memory Report at c_bands before calling an iterative solver
          1677 MiB given to the printing process from OS
          1734 MiB allocation reported by mallinfo(arena+hblkhd)
        161936 MiB available memory on the node where the printing process lives
------------------
     ethr =  3.31E-03,  avg # of iterations =  2.0

     total cpu time spent up to now is      574.7 secs

     total energy              =    -266.66266179 Ry
     estimated scf accuracy    <       0.87835210 Ry

     iteration #  3     ecut=   300.00 Ry     beta= 0.70
     Davidson diagonalization with overlap

---- Real-time Memory Report at c_bands before calling an iterative solver
          1763 MiB given to the printing process from OS
          1779 MiB allocation reported by mallinfo(arena+hblkhd)
        161144 MiB available memory on the node where the printing process lives
------------------
     ethr =  1.19E-03,  avg # of iterations =  2.0

     total cpu time spent up to now is      604.3 secs

     total energy              =    -266.85332391 Ry
     estimated scf accuracy    <       0.07960590 Ry

     iteration #  4     ecut=   300.00 Ry     beta= 0.70
     Davidson diagonalization with overlap

---- Real-time Memory Report at c_bands before calling an iterative solver
          1804 MiB given to the printing process from OS
          1819 MiB allocation reported by mallinfo(arena+hblkhd)
        160839 MiB available memory on the node where the printing process lives
------------------
     ethr =  1.08E-04,  avg # of iterations = 13.0

     total cpu time spent up to now is      645.9 secs

     total energy              =    -266.87159292 Ry
     estimated scf accuracy    <       0.02793196 Ry

     iteration #  5     ecut=   300.00 Ry     beta= 0.70
     Davidson diagonalization with overlap

---- Real-time Memory Report at c_bands before calling an iterative solver
          1856 MiB given to the printing process from OS
          1972 MiB allocation reported by mallinfo(arena+hblkhd)
        160461 MiB available memory on the node where the printing process lives
------------------
     ethr =  3.77E-05,  avg # of iterations =  5.0

     total cpu time spent up to now is      675.8 secs

     total energy              =    -266.87740074 Ry
     estimated scf accuracy    <       0.00269646 Ry

     iteration #  6     ecut=   300.00 Ry     beta= 0.70
     Davidson diagonalization with overlap

---- Real-time Memory Report at c_bands before calling an iterative solver
          1887 MiB given to the printing process from OS
          1972 MiB allocation reported by mallinfo(arena+hblkhd)
        160172 MiB available memory on the node where the printing process lives
------------------
     ethr =  3.64E-06,  avg # of iterations = 10.0

     total cpu time spent up to now is      713.5 secs

     total energy              =    -266.87803333 Ry
     estimated scf accuracy    <       0.00015474 Ry

     iteration #  7     ecut=   300.00 Ry     beta= 0.70
     Davidson diagonalization with overlap

---- Real-time Memory Report at c_bands before calling an iterative solver
          1927 MiB given to the printing process from OS
          1972 MiB allocation reported by mallinfo(arena+hblkhd)
        159743 MiB available memory on the node where the printing process lives
------------------
     ethr =  2.09E-07,  avg # of iterations =  2.0

     total cpu time spent up to now is      745.1 secs

     total energy              =    -266.87807731 Ry
     estimated scf accuracy    <       0.00005546 Ry

     iteration #  8     ecut=   300.00 Ry     beta= 0.70
     Davidson diagonalization with overlap

---- Real-time Memory Report at c_bands before calling an iterative solver
          1965 MiB given to the printing process from OS
          1980 MiB allocation reported by mallinfo(arena+hblkhd)
        159430 MiB available memory on the node where the printing process lives
------------------
     ethr =  7.50E-08,  avg # of iterations =  2.0

     total cpu time spent up to now is      772.8 secs

     total energy              =    -266.87808839 Ry
     estimated scf accuracy    <       0.00000729 Ry

     iteration #  9     ecut=   300.00 Ry     beta= 0.70
     Davidson diagonalization with overlap

---- Real-time Memory Report at c_bands before calling an iterative solver
          2005 MiB given to the printing process from OS
          2020 MiB allocation reported by mallinfo(arena+hblkhd)
        159109 MiB available memory on the node where the printing process lives
------------------
     ethr =  9.85E-09,  avg # of iterations =  2.0

     total cpu time spent up to now is      802.1 secs

     total energy              =    -266.87808974 Ry
     estimated scf accuracy    <       0.00000121 Ry

     iteration # 10     ecut=   300.00 Ry     beta= 0.70
     Davidson diagonalization with overlap

---- Real-time Memory Report at c_bands before calling an iterative solver
          2046 MiB given to the printing process from OS
         -2035 MiB allocation reported by mallinfo(arena+hblkhd)
        158786 MiB available memory on the node where the printing process lives
------------------
     ethr =  1.63E-09,  avg # of iterations =  2.0

     total cpu time spent up to now is      830.9 secs

     End of self-consistent calculation

          k = 0.0000 0.0000 0.0000 (****** PWs)   bands (ev):

   -27.1657 -24.8644 -24.1261 -22.3814 -21.9430 -20.7501 -19.1199 -18.8786
   -17.6667 -16.3034 -15.8499 -15.3447 -14.0534 -13.6364 -12.7745 -11.5641
   -11.3759 -11.2913 -11.1229 -10.6694 -10.2396 -10.2134  -9.8639  -9.7894
    -9.3861  -9.0979  -8.9565  -8.1243  -7.5575  -7.2707  -7.1458  -7.1069
    -6.9296  -6.2320  -6.2145  -6.0693  -5.1731  -1.5771  -1.5220  -0.5138
    -0.4473  -0.0920   0.2586   0.3943   0.7355   0.9649   1.0617   1.2286
     1.2725

     occupation numbers 
     1.0000   1.0000   1.0000   1.0000   1.0000   1.0000   1.0000   1.0000
     1.0000   1.0000   1.0000   1.0000   1.0000   1.0000   1.0000   1.0000
     1.0000   1.0000   1.0000   1.0000   1.0000   1.0000   1.0000   1.0000
     1.0000   1.0000   1.0000   1.0000   1.0000   1.0000   1.0000   1.0000
     1.0000   1.0000   1.0000   1.0000   1.0000   0.0000   0.0000   0.0000
     0.0000   0.0000   0.0000   0.0000   0.0000   0.0000   0.0000   0.0000
     0.0000

     the Fermi energy is    -3.8896 ev

!    total energy              =    -266.87809000 Ry
     estimated scf accuracy    <       0.00000008 Ry
     smearing contrib. (-TS)   =       0.00000000 Ry
     internal energy E=F+TS    =    -266.87809000 Ry

     The total energy is F=E-TS. E is the sum of the following terms:
     one-electron contribution =   -1065.06494106 Ry
     hartree contribution      =     542.60260857 Ry
     xc contribution           =     -83.36664403 Ry
     ewald contribution        =     338.97557113 Ry
     DFT-D3 Dispersion         =      -0.02468461 Ry

     convergence has been achieved in  10 iterations

     Forces acting on atoms (cartesian axes, Ry/au):

     atom    1 type  1   force =     0.00037256   -0.00001627    0.00007936
     atom    2 type  2   force =    -0.00111747    0.00273629   -0.00132950
     atom    3 type  3   force =     0.00018578   -0.00105825    0.00145123
     atom    4 type  3   force =     0.00056692   -0.00027914   -0.00095207
     atom    5 type  4   force =    -0.00067685    0.00087980   -0.00003991
     atom    6 type  4   force =     0.00034178   -0.00081209    0.00017044
     atom    7 type  5   force =     0.00011572   -0.00076136   -0.00004119
     atom    8 type  5   force =    -0.00069860   -0.00016504    0.00003969
     atom    9 type  5   force =     0.00085511    0.00077118    0.00004706
     atom   10 type  5   force =    -0.00074803    0.00068995    0.00003504
     atom   11 type  5   force =    -0.00039982    0.00010355    0.00004936
     atom   12 type  5   force =    -0.00018611    0.00066872    0.00010199
     atom   13 type  5   force =     0.00146653   -0.00064988    0.00012377
     atom   14 type  5   force =    -0.00107917   -0.00076256   -0.00006836
     atom   15 type  6   force =     0.00032724   -0.00041636   -0.00014689
     atom   16 type  6   force =     0.00038815   -0.00090626    0.00005462
     atom   17 type  6   force =    -0.00011526   -0.00034597   -0.00000762
     atom   18 type  6   force =    -0.00039752   -0.00003999    0.00003788
     atom   19 type  6   force =     0.00009970    0.00049119    0.00036271
     atom   20 type  6   force =     0.00054224   -0.00049443    0.00012929
     atom   21 type  6   force =     0.00015708    0.00036691   -0.00009689
     The non-local contrib.  to forces
     atom    1 type  1   force =    -0.37021337    0.13567869    0.00014593
     atom    2 type  2   force =    -0.14608542    0.12472029    0.00523996
     atom    3 type  3   force =    -0.03350697    1.06758322    2.01615104
     atom    4 type  3   force =    -0.03513553    1.22974868   -1.93082429
     atom    5 type  4   force =     0.02137882   -0.04296217    0.01199713
     atom    6 type  4   force =     1.25251460    0.90587350   -0.01528973
     atom    7 type  5   force =    -0.06360569    0.02794880   -0.00281592
     atom    8 type  5   force =    -0.31598342    0.07644893   -0.00024185
     atom    9 type  5   force =     0.26038788   -0.00452407    0.00031328
     atom   10 type  5   force =    -0.04506168    0.10470037    0.00040692
     atom   11 type  5   force =    -0.04857133   -0.05404719   -0.00009217
     atom   12 type  5   force =     0.31355867   -0.11053429    0.00021451
     atom   13 type  5   force =    -0.04820288   -0.05918217    0.00035946
     atom   14 type  5   force =     0.11808747    0.00892903   -0.00030786
     atom   15 type  6   force =     0.01671855   -0.13091336   -0.00100603
     atom   16 type  6   force =    -0.01744418    0.10313081    0.00030251
     atom   17 type  6   force =     0.01499862   -0.09987113   -0.00025572
     atom   18 type  6   force =    -0.08011090   -0.06534391   -0.00023494
     atom   19 type  6   force =     0.00896688   -0.05575688   -0.07921100
     atom   20 type  6   force =     0.07711948    0.06585632    0.00056445
     atom   21 type  6   force =     0.00885376   -0.05674475    0.07843583
     The ionic contribution  to forces
     atom    1 type  1   force =    14.82346534   -4.01166726    0.01469985
     atom    2 type  2   force =    -1.88300205   -4.59370524    0.03522286
     atom    3 type  3   force =    -1.77309037  -12.77687973  -15.62900289
     atom    4 type  3   force =    -1.75817030  -13.87292504   14.79079332
     atom    5 type  4   force =    -2.58565278   10.17897230    0.00123149
     atom    6 type  4   force =   -13.02049282   -5.60914524    0.22784537
     atom    7 type  5   force =     1.87339429   -1.80014458    0.13398530
     atom    8 type  5   force =     1.59538763    4.41103397    0.05678123
     atom    9 type  5   force =    -7.18216388    3.82390840    0.07403714
     atom   10 type  5   force =     5.02601876   -6.30863794    0.05733792
     atom   11 type  5   force =     2.43502749    9.19114073    0.04625106
     atom   12 type  5   force =     6.71819333   -0.60892647    0.03370173
     atom   13 type  5   force =     7.18129341    6.51429205    0.03434000
     atom   14 type  5   force =    -8.52677085    4.27719668    0.04472020
     atom   15 type  6   force =    -0.82377903    4.79369282    0.03055385
     atom   16 type  6   force =     1.55746233   -3.58215556    0.00103991
     atom   17 type  6   force =     0.16784933    3.89618963    0.01263786
     atom   18 type  6   force =     2.92296210    2.64390140    0.01003607
     atom   19 type  6   force =    -1.62582602    2.21296654    2.25775150
     atom   20 type  6   force =    -3.49512983   -1.02460094   -0.00743746
     atom   21 type  6   force =    -1.62697609    2.24549348   -2.22652632
     The local contribution  to forces
     atom    1 type  1   force =   -14.47145099    3.88283844   -0.01478298
     atom    2 type  2   force =     2.02248896    4.48683024   -0.04102426
     atom    3 type  3   force =     1.80564682   11.73229514   13.66162023
     atom    4 type  3   force =     1.79278629   12.67087196  -12.90626467
     atom    5 type  4   force =     2.56656536  -10.13667354   -0.01298540
     atom    6 type  4   force =    11.80241906    4.71990103   -0.21267029
     atom    7 type  5   force =    -1.81857620    1.76701230   -0.13120377
     atom    8 type  5   force =    -1.29580548   -4.48322868   -0.05649337
     atom    9 type  5   force =     6.92827784   -3.80901155   -0.07422954
     atom   10 type  5   force =    -4.98253616    6.20277136   -0.05764065
     atom   11 type  5   force =    -2.39018149   -9.13333160   -0.04607736
     atom   12 type  5   force =    -7.00747075    0.71245084   -0.03377778
     atom   13 type  5   force =    -7.12829385   -6.45489386   -0.03454538
     atom   14 type  5   force =     8.41277552   -4.28662433   -0.04448309
     atom   15 type  6   force =     0.80744094   -4.66311938   -0.02969593
     atom   16 type  6   force =    -1.53951478    3.47811706   -0.00128326
     atom   17 type  6   force =    -0.18296216   -3.79664125   -0.01239189
     atom   18 type  6   force =    -2.84326191   -2.57856081   -0.00976618
     atom   19 type  6   force =     1.61682098   -2.15671326   -2.17827992
     atom   20 type  6   force =     3.41861373    0.95829361    0.00700064
     atom   21 type  6   force =     1.61814418   -2.18837658    2.14809033
     The core correction contribution to forces
     atom    1 type  1   force =     0.01833649   -0.00669286   -0.00001119
     atom    2 type  2   force =     0.00588812   -0.01467460   -0.00059989
     atom    3 type  3   force =     0.00083814   -0.02416050   -0.04685316
     atom    4 type  3   force =     0.00083703   -0.02801573    0.04490625
     atom    5 type  4   force =    -0.00303248    0.00133603   -0.00026874
     atom    6 type  4   force =    -0.03356785   -0.01756620    0.00030495
     atom    7 type  5   force =     0.00817549    0.00409602    0.00000396
     atom    8 type  5   force =     0.01568697   -0.00444536    0.00000959
     atom    9 type  5   force =    -0.00574583   -0.00934511   -0.00006414
     atom   10 type  5   force =     0.00148960    0.00215888   -0.00005799
     atom   11 type  5   force =     0.00336840   -0.00356452   -0.00002354
     atom   12 type  5   force =    -0.02426069    0.00792131   -0.00003421
     atom   13 type  5   force =    -0.00304172   -0.00122051   -0.00002589
     atom   14 type  5   force =    -0.00507684   -0.00010883   -0.00000079
     atom   15 type  6   force =     0.00000000    0.00000000    0.00000000
     atom   16 type  6   force =     0.00000000    0.00000000    0.00000000
     atom   17 type  6   force =     0.00000000    0.00000000    0.00000000
     atom   18 type  6   force =     0.00000000    0.00000000    0.00000000
     atom   19 type  6   force =     0.00000000    0.00000000    0.00000000
     atom   20 type  6   force =     0.00000000    0.00000000    0.00000000
     atom   21 type  6   force =     0.00000000    0.00000000    0.00000000
     The Hubbard contrib.    to forces
     atom    1 type  1   force =     0.00000000    0.00000000    0.00000000
     atom    2 type  2   force =     0.00000000    0.00000000    0.00000000
     atom    3 type  3   force =     0.00000000    0.00000000    0.00000000
     atom    4 type  3   force =     0.00000000    0.00000000    0.00000000
     atom    5 type  4   force =     0.00000000    0.00000000    0.00000000
     atom    6 type  4   force =     0.00000000    0.00000000    0.00000000
     atom    7 type  5   force =     0.00000000    0.00000000    0.00000000
     atom    8 type  5   force =     0.00000000    0.00000000    0.00000000
     atom    9 type  5   force =     0.00000000    0.00000000    0.00000000
     atom   10 type  5   force =     0.00000000    0.00000000    0.00000000
     atom   11 type  5   force =     0.00000000    0.00000000    0.00000000
     atom   12 type  5   force =     0.00000000    0.00000000    0.00000000
     atom   13 type  5   force =     0.00000000    0.00000000    0.00000000
     atom   14 type  5   force =     0.00000000    0.00000000    0.00000000
     atom   15 type  6   force =     0.00000000    0.00000000    0.00000000
     atom   16 type  6   force =     0.00000000    0.00000000    0.00000000
     atom   17 type  6   force =     0.00000000    0.00000000    0.00000000
     atom   18 type  6   force =     0.00000000    0.00000000    0.00000000
     atom   19 type  6   force =     0.00000000    0.00000000    0.00000000
     atom   20 type  6   force =     0.00000000    0.00000000    0.00000000
     atom   21 type  6   force =     0.00000000    0.00000000    0.00000000
     The SCF correction term to forces
     atom    1 type  1   force =     0.00012912   -0.00007176    0.00002557
     atom    2 type  2   force =    -0.00005073    0.00003830   -0.00015449
     atom    3 type  3   force =    -0.00003947    0.00000467   -0.00007729
     atom    4 type  3   force =    -0.00008879   -0.00001263    0.00004283
     atom    5 type  4   force =    -0.00004008   -0.00009891   -0.00001649
     atom    6 type  4   force =    -0.00004021   -0.00010015   -0.00004559
     atom    7 type  5   force =     0.00003440   -0.00003864   -0.00003502
     atom    8 type  5   force =     0.00002235   -0.00024282   -0.00002094
     atom    9 type  5   force =     0.00001533   -0.00020389   -0.00001323
     atom   10 type  5   force =    -0.00016430    0.00001916   -0.00001479
     atom   11 type  5   force =    -0.00000440   -0.00003228   -0.00000923
     atom   12 type  5   force =    -0.00011273   -0.00006693   -0.00000225
     atom   13 type  5   force =     0.00000515   -0.00002899   -0.00000682
     atom   14 type  5   force =    -0.00002869   -0.00003305    0.00000224
     atom   15 type  6   force =    -0.00000731    0.00002021   -0.00000121
     atom   16 type  6   force =    -0.00001835    0.00000959   -0.00000294
     atom   17 type  6   force =    -0.00000195    0.00002697   -0.00000134
     atom   18 type  6   force =     0.00001296    0.00001122   -0.00000049
     atom   19 type  6   force =    -0.00000827    0.00001145    0.00002115
     atom   20 type  6   force =    -0.00001764   -0.00002361    0.00000022
     atom   21 type  6   force =    -0.00000720    0.00001158   -0.00002066

     DFT-D3 dispersion contribution to forces:
     atom    1 type  1   force =     0.00010945   -0.00010804   -0.00000157
     atom    2 type  2   force =    -0.00035286   -0.00047920   -0.00001742
     atom    3 type  3   force =     0.00034113    0.00009244   -0.00039045
     atom    4 type  3   force =     0.00034171    0.00004710    0.00039075
     atom    5 type  4   force =     0.00010780    0.00029958   -0.00000164
     atom    6 type  4   force =    -0.00048751    0.00021846    0.00002200
     atom    7 type  5   force =     0.00069693    0.00035823    0.00002052
     atom    8 type  5   force =    -0.00000317    0.00026242    0.00000128
     atom    9 type  5   force =     0.00008726   -0.00005911   -0.00000019
     atom   10 type  5   force =    -0.00049077   -0.00032838   -0.00000010
     atom   11 type  5   force =    -0.00003499   -0.00006809   -0.00000315
     atom   12 type  5   force =    -0.00009046   -0.00018224   -0.00000375
     atom   13 type  5   force =    -0.00029009    0.00037709   -0.00000133
     atom   14 type  5   force =    -0.00006228   -0.00012857   -0.00000281
     atom   15 type  6   force =    -0.00004242   -0.00010316   -0.00000132
     atom   16 type  6   force =    -0.00009337   -0.00001466   -0.00000534
     atom   17 type  6   force =     0.00000439   -0.00005670   -0.00000027
     atom   18 type  6   force =     0.00000372   -0.00005439   -0.00000033
     atom   19 type  6   force =     0.00014963   -0.00002316    0.00007723
     atom   20 type  6   force =    -0.00004002   -0.00002632   -0.00000230
     atom   21 type  6   force =     0.00014592   -0.00002332   -0.00007981

     Total force =     0.005330     Total SCF correction =     0.000502

     DFT-D3 dispersion Force =     0.001655


     Computing stress (Cartesian axis) and pressure

          total   stress  (Ry/bohr**3)                   (kbar)     P=       -0.03
   0.00000008  -0.00000013   0.00000005            0.01       -0.02        0.01
  -0.00000013  -0.00000090   0.00000016           -0.02       -0.13        0.02
   0.00000005   0.00000016   0.00000016            0.01        0.02        0.02

     kinetic stress (kbar)   1081.94     12.99      0.07
                               12.99   1069.96      0.70
                                0.07      0.70   1133.72

     local   stress (kbar)  -4261.58    193.85    -10.59
                              193.85  -3948.52    -21.87
                              -10.59    -21.87  -2662.55

     nonloc. stress (kbar)   -124.00     -1.89     -0.01
                               -1.89   -122.23     -0.23
                               -0.01     -0.23   -115.01

     hartree stress (kbar)   1962.91    -66.93      4.88
                              -66.93   1845.28     10.77
                                4.88     10.77   1521.65

     exc-cor stress (kbar)    -76.19     -0.19      0.00
                               -0.19    -75.86     -0.00
                                0.00     -0.00    -79.92

     corecor stress (kbar)   -159.72     -0.23     -0.00
                               -0.23   -160.36     -0.00
                               -0.00     -0.00   -159.26

     ewald   stress (kbar)   1576.68   -137.62      5.67
                             -137.62   1391.59     10.65
                                5.67     10.65    361.39

     hubbard stress (kbar)      0.00      0.00      0.00
                                0.00      0.00      0.00
                                0.00      0.00      0.00

     DFT-D   stress (kbar)     -0.03     -0.01     -0.00
                               -0.01      0.01     -0.00
                               -0.00     -0.00      0.01

     XDM     stress (kbar)      0.00      0.00      0.00
                                0.00      0.00      0.00
                                0.00      0.00      0.00

     dft-nl  stress (kbar)      0.00      0.00      0.00
                                0.00      0.00      0.00
                                0.00      0.00      0.00

     TS-vdW  stress (kbar)      0.00      0.00      0.00
                                0.00      0.00      0.00
                                0.00      0.00      0.00


                                0.00      0.00      0.00
                                0.00      0.00      0.00


                                0.00      0.00      0.00


     Writing all to output data dir ./calc.save/

     init_run     :    428.52s CPU    430.59s WALL (       1 calls)
     electrons    :    389.53s CPU    400.82s WALL (       1 calls)
     forces       :    297.13s CPU    297.97s WALL (       1 calls)
     force_dftd3  :      0.04s CPU      0.04s WALL (       1 calls)
     stress       :    686.22s CPU    688.07s WALL (       1 calls)
     stres_dftd3  :      0.04s CPU      0.04s WALL (       1 calls)

     Called by init_run:
     wfcinit      :      8.69s CPU      9.04s WALL (       1 calls)
     wfcinit:wfcr :      7.68s CPU      7.94s WALL (       1 calls)
     potinit      :    149.56s CPU    150.09s WALL (       1 calls)
     hinit0       :    265.47s CPU    266.57s WALL (       1 calls)

     Called by electrons:
     c_bands      :    325.93s CPU    334.71s WALL (      10 calls)
     sum_band     :     39.47s CPU     40.74s WALL (      10 calls)
     v_of_rho     :     21.74s CPU     22.74s WALL (      11 calls)
     v_h          :      1.44s CPU      1.54s WALL (      11 calls)
     v_xc         :     23.94s CPU     25.00s WALL (      13 calls)
     mix_rho      :      3.54s CPU      3.63s WALL (      10 calls)
     energy_dftd3 :      0.03s CPU      0.03s WALL (       1 calls)

     Called by c_bands:
     init_us_2    :      4.31s CPU      4.41s WALL (      21 calls)
     init_us_2:cp :      4.31s CPU      4.41s WALL (      21 calls)
     cegterg      :    314.84s CPU    323.59s WALL (      10 calls)

     Called by sum_band:
     sum_band:wei :      0.00s CPU      0.00s WALL (      10 calls)
     sum_band:loo :     37.04s CPU     38.11s WALL (      10 calls)
     sum_band:buf :      0.00s CPU      0.00s WALL (      10 calls)
     sum_band:ini :      2.05s CPU      2.06s WALL (      10 calls)

     Called by *egterg:
     cdiaghg      :      0.19s CPU      0.21s WALL (      66 calls)
     cegterg:over :     12.88s CPU     12.91s WALL (      56 calls)
     cegterg:upda :      9.98s CPU     10.02s WALL (      56 calls)
     cegterg:last :     12.72s CPU     12.76s WALL (      32 calls)
     cdiaghg:chol :      0.01s CPU      0.02s WALL (      66 calls)
     cdiaghg:inve :      0.00s CPU      0.00s WALL (      66 calls)
     cdiaghg:para :      0.03s CPU      0.03s WALL (     132 calls)
     h_psi        :    281.42s CPU    290.26s WALL (      67 calls)
     g_psi        :      1.59s CPU      1.59s WALL (      56 calls)

     Called by h_psi:
     h_psi:calbec :     15.79s CPU     15.83s WALL (      67 calls)
     vloc_psi     :    248.85s CPU    257.47s WALL (      67 calls)
     add_vuspsi   :     15.83s CPU     15.87s WALL (      67 calls)

     General routines
     calbec       :     17.66s CPU     17.71s WALL (      72 calls)
     fft          :     20.08s CPU     21.46s WALL (     134 calls)
     ffts         :      0.99s CPU      1.09s WALL (      10 calls)
     fftw         :    252.78s CPU    262.36s WALL (    4210 calls)

     Parallel routines

     PWSCF        :  30m 2.45s CPU  30m20.57s WALL


   This run was terminated on:  11:33: 1  28Oct2022            

=------------------------------------------------------------------------------=
   JOB DONE.
=------------------------------------------------------------------------------=
