Ta    ONCVPSP-3.3.0  r_core=   1.71294   1.71294   1.71294   2.25368
73.0000     13.0000      180420    zatom,zion,pspd
8      11   3     4   600     0    pspcod,pspxc,lmax,lloc,mmax,r2well
5.99000000  5.00000000  0.00000000    rchrg fchrg qchrg
2     4     4     4    nproj
3     1           extension_switch
4     4     4    nprojso
0                         1.4003178736630E+00  1.1076550965676E+01
1  0.0000000000000E+00  5.7495219696335E-10 -2.3412050076388E-10
2  1.0000000000000E-02 -2.0780726238371E-02  6.3830631817969E-02
3  2.0000000000000E-02 -4.1387442560303E-02  1.2751990247540E-01
4  3.0000000000000E-02 -6.1647544716191E-02  1.9092711859441E-01
5  4.0000000000000E-02 -8.1391225693547E-02  2.5391291655179E-01
6  5.0000000000000E-02 -1.0045283924169E-01  3.1633991288991E-01
7  6.0000000000000E-02 -1.1867222169520E-01  3.7807333753536E-01
8  7.0000000000000E-02 -1.3589595887717E-01  4.3898164437217E-01
9  8.0000000000000E-02 -1.5197858543790E-01  4.9893709395040E-01
10  9.0000000000000E-02 -1.6678370469299E-01  5.5781630339902E-01
11  1.0000000000000E-01 -1.8018501785747E-01  6.1550075895145E-01
12  1.1000000000000E-01 -1.9206725252304E-01  6.7187728687847E-01
13  1.2000000000000E-01 -2.0232698128289E-01  7.2683847905372E-01
14  1.3000000000000E-01 -2.1087332256259E-01  7.8028306984653E-01
15  1.4000000000000E-01 -2.1762851695367E-01  8.3211626154016E-01
16  1.5000000000000E-01 -2.2252837365753E-01  8.8224999600673E-01
17  1.6000000000000E-01 -2.2552258301544E-01  9.3060317092599E-01
18  1.7000000000000E-01 -2.2657489251418E-01  9.7710179940950E-01
19  1.8000000000000E-01 -2.2566314509914E-01  1.0216791124773E+00
20  1.9000000000000E-01 -2.2277918008457E-01  1.0642756044262E+00
21  2.0000000000000E-01 -2.1792859840749E-01  1.1048390217180E+00
22  2.1000000000000E-01 -2.1113039541340E-01  1.1433242966040E+00
23  2.2000000000000E-01 -2.0241646577222E-01  1.1796934272671E+00
24  2.3000000000000E-01 -1.9183098648806E-01  1.2139153068224E+00
25  2.4000000000000E-01 -1.7942968527106E-01  1.2459655040370E+00
26  2.5000000000000E-01 -1.6527900277034E-01  1.2758259991327E+00
27  2.6000000000000E-01 -1.4945515831049E-01  1.3034848784916E+00
28  2.7000000000000E-01 -1.3204312981794E-01  1.3289359925055E+00
29  2.8000000000000E-01 -1.1313555955600E-01  1.3521785811858E+00
30  2.9000000000000E-01 -9.2831598098995E-02  1.3732168724714E+00
31  3.0000000000000E-01 -7.1235699656115E-02  1.3920596584451E+00
32  3.1000000000000E-01 -4.8456382398072E-02  1.4087198548826E+00
33  3.2000000000000E-01 -2.4604967836763E-02  1.4232140497127E+00
34  3.3000000000000E-01  2.0568644470574E-04  1.4355620460590E+00
35  3.4000000000000E-01  2.5862446320255E-02  1.4457864055689E+00
36  3.5000000000000E-01  5.2253138578022E-02  1.4539119976968E+00
37  3.6000000000000E-01  7.9267752194028E-02  1.4599655605185E+00
38  3.7000000000000E-01  1.0679958968227E-01  1.4639752784925E+00
39  3.8000000000000E-01  1.3474635530406E-01  1.4659703823627E+00
40  3.9000000000000E-01  1.6301116759034E-01  1.4659807761218E+00
41  4.0000000000000E-01  1.9150348444168E-01  1.4640366956140E+00
42  4.1000000000000E-01  2.2013993001600E-01  1.4601684029681E+00
43  4.2000000000000E-01  2.4884501368259E-01  1.4544059206118E+00
44  4.3000000000000E-01  2.7755173250491E-01  1.4467788081328E+00
45  4.4000000000000E-01  3.0620204999890E-01  1.4373159847257E+00
46  4.5000000000000E-01  3.3474724528890E-01  1.4260455994036E+00
47  4.6000000000000E-01  3.6314812823304E-01  1.4129949505621E+00
48  4.7000000000000E-01  3.9137511759973E-01  1.3981904558704E+00
49  4.8000000000000E-01  4.1940818093315E-01  1.3816576728322E+00
50  4.9000000000000E-01  4.4723663632824E-01  1.3634213697210E+00
51  5.0000000000000E-01  4.7485881793240E-01  1.3435056459489E+00
52  5.1000000000000E-01  5.0228160858057E-01  1.3219341002895E+00
53  5.2000000000000E-01  5.2951984453878E-01  1.2987300447464E+00
54  5.3000000000000E-01  5.5659559885942E-01  1.2739167612484E+00
55  5.4000000000000E-01  5.8353735132461E-01  1.2475177977680E+00
56  5.5000000000000E-01  6.1037905435129E-01  1.2195572999041E+00
57  5.6000000000000E-01  6.3715910554498E-01  1.1900603734557E+00
58  5.7000000000000E-01  6.6391923879362E-01  1.1590534730426E+00
59  5.8000000000000E-01  6.9070334688330E-01  1.1265648114053E+00
60  5.9000000000000E-01  7.1755624957474E-01  1.0926247836546E+00
61  6.0000000000000E-01  7.4452242189482E-01  1.0572664004317E+00
62  6.1000000000000E-01  7.7164469805802E-01  1.0205257237025E+00
63  6.2000000000000E-01  7.9896296693301E-01  9.8244229873284E-01
64  6.3000000000000E-01  8.2651287529744E-01  9.4305957569175E-01
65  6.4000000000000E-01  8.5432455527933E-01  9.0242531429943E-01
66  6.5000000000000E-01  8.8242139235667E-01  8.6059196498124E-01
67  6.6000000000000E-01  9.1081885008150E-01  8.1761702010940E-01
68  6.7000000000000E-01  9.3952336730573E-01  7.7356332910902E-01
69  6.8000000000000E-01  9.6853134311772E-01  7.2849937147392E-01
70  6.9000000000000E-01  9.9782822395845E-01  6.8249948207724E-01
71  7.0000000000000E-01  1.0273877064680E+00  6.3564402357432E-01
72  7.1000000000000E-01  1.0571710685408E+00  5.8801950116992E-01
73  7.2000000000000E-01  1.0871266398344E+00  5.3971861556263E-01
74  7.3000000000000E-01  1.1171894216133E+00  4.9084025047190E-01
75  7.4000000000000E-01  1.1472808642992E+00  4.4148939180468E-01
76  7.5000000000000E-01  1.1773088094890E+00  3.9177697620915E-01
77  7.6000000000000E-01  1.2071676014880E+00  3.4181966749642E-01
78  7.7000000000000E-01  1.2367383716052E+00  2.9173956017422E-01
79  7.8000000000000E-01  1.2658894966023E+00  2.4166381012457E-01
80  7.9000000000000E-01  1.2944772307751E+00  1.9172419326141E-01
81  8.0000000000000E-01  1.3223465092242E+00  1.4205659381397E-01
82  8.1000000000000E-01  1.3493319179290E+00  9.2800424692884E-02
83  8.2000000000000E-01  1.3752588243230E+00  4.4097983196558E-02
84  8.3000000000000E-01  1.3999446601831E+00 -3.9062539036994E-03
85  8.4000000000000E-01  1.4232003468223E+00 -5.1066391105674E-02
86  8.5000000000000E-01  1.4448318508236E+00 -9.7235925232078E-02
87  8.6000000000000E-01  1.4646418569046E+00 -1.4226860061121E-01
88  8.7000000000000E-01  1.4824315429645E+00 -1.8601930156949E-01
89  8.8000000000000E-01  1.4980024409676E+00 -2.2834497485797E-01
90  8.9000000000000E-01  1.5111583660652E+00 -2.6910557413631E-01
91  9.0000000000000E-01  1.5217073952762E+00 -3.0816501821095E-01
92  9.1000000000000E-01  1.5294638761444E+00 -3.4539215437627E-01
93  9.2000000000000E-01  1.5342504450803E+00 -3.8066171794200E-01
94  9.3000000000000E-01  1.5359000345875E+00 -4.1385527885248E-01
95  9.4000000000000E-01  1.5342578482811E+00 -4.4486216621531E-01
96  9.5000000000000E-01  1.5291832825229E+00 -4.7358036156212E-01
97  9.6000000000000E-01  1.5205517736430E+00 -4.9991735176406E-01
98  9.7000000000000E-01  1.5082565500859E+00 -5.2379093271857E-01
99  9.8000000000000E-01  1.4922102694011E+00 -5.4512995521235E-01
100  9.9000000000000E-01  1.4723465208109E+00 -5.6387500474634E-01
101  1.0000000000000E+00  1.4486211750993E+00 -5.7997900757749E-01
102  1.0100000000000E+00  1.4210135648253E+00 -5.9340775580385E-01
103  1.0200000000000E+00  1.3895274792206E+00 -6.0414034492950E-01
104  1.0300000000000E+00  1.3541919597991E+00 -6.1216951809194E-01
105  1.0400000000000E+00  1.3150618844599E+00 -6.1750191191030E-01
106  1.0500000000000E+00  1.2722183297812E+00 -6.2015819975993E-01
107  1.0600000000000E+00  1.2257687032748E+00 -6.2017312918800E-01
108  1.0700000000000E+00  1.1758466396183E+00 -6.1759545116880E-01
109  1.0800000000000E+00  1.1226116569177E+00 -6.1248773978656E-01
110  1.0900000000000E+00  1.0662485717293E+00 -6.0492610209678E-01
111  1.1000000000000E+00  1.0069666736959E+00 -5.9499977884088E-01
112  1.1100000000000E+00  9.4499866326136E-01 -5.8281063781834E-01
113  1.1200000000000E+00  8.8059935812812E-01 -5.6847256267073E-01
114  1.1300000000000E+00  8.1404417663084E-01 -5.5211074091572E-01
115  1.1400000000000E+00  7.4562740859347E-01 -5.3386085609777E-01
116  1.1500000000000E+00  6.7566028645979E-01 -5.1386818987773E-01
117  1.1600000000000E+00  6.0446887148318E-01 -4.9228664073888E-01
118  1.1700000000000E+00  5.3239177193189E-01 -4.6927766691663E-01
119  1.1800000000000E+00  4.5977771224272E-01 -4.4500916200223E-01
120  1.1900000000000E+00  3.8698297373458E-01 -4.1965427238486E-01
121  1.2000000000000E+00  3.1436872863258E-01 -3.9339016618161E-01
122  1.2100000000000E+00  2.4229829114121E-01 -3.6639676414652E-01
123  1.2200000000000E+00  1.7113430999779E-01 -3.3885544333890E-01
124  1.2300000000000E+00  1.0123592774796E-01 -3.1094772467033E-01
125  1.2400000000000E+00  3.2955932855085E-02 -2.8285395581341E-01
126  1.2500000000000E+00 -3.3362068954305E-02 -2.5475200106504E-01
127  1.2600000000000E+00 -9.7386437863928E-02 -2.2681594968103E-01
128  1.2700000000000E+00 -1.5880021104345E-01 -1.9921485435036E-01
129  1.2800000000000E+00 -2.1730371594300E-01 -1.7211151105654E-01
130  1.2900000000000E+00 -2.7261706089600E-01 -1.4566129123611E-01
131  1.3000000000000E+00 -3.2448247802947E-01 -1.2001103717577E-01
132  1.3100000000000E+00 -3.7266649630398E-01 -9.5298030354655E-02
133  1.3200000000000E+00 -4.1696192302553E-01 -7.1649042215170E-02
134  1.3300000000000E+00 -4.5718961289865E-01 -4.9179476522902E-02
135  1.3400000000000E+00 -4.9320000844876E-01 -2.7992610413151E-02
136  1.3500000000000E+00 -5.2487443452195E-01 -8.1789417077915E-03
137  1.3600000000000E+00 -5.5212613298041E-01  1.0184351394772E-02
138  1.3700000000000E+00 -5.7490102901256E-01  2.7033834441246E-02
139  1.3800000000000E+00 -5.9317821633465E-01  4.2320119054365E-02
140  1.3900000000000E+00 -6.0697015880010E-01  5.6008042292883E-02
141  1.4000000000000E+00 -6.1632260457584E-01  6.8076721270876E-02
142  1.4100000000000E+00 -6.2131420963595E-01  7.8519481525790E-02
143  1.4200000000000E+00 -6.2205587844027E-01  8.7343662413907E-02
144  1.4300000000000E+00 -6.1868982106588E-01  9.4570299106933E-02
145  1.4400000000000E+00 -6.1138833915612E-01  1.0023368640580E-01
146  1.4500000000000E+00 -6.0035235066182E-01  1.0438082855679E-01
147  1.4600000000000E+00 -5.8580966364784E-01  1.0707077938473E-01
148  1.4700000000000E+00 -5.6801302168487E-01  1.0837388233048E-01
149  1.4800000000000E+00 -5.4723793089716E-01  1.0837091461962E-01
150  1.4900000000000E+00 -5.2378029714342E-01  1.0715214771501E-01
151  1.5000000000000E+00 -4.9795389030373E-01  1.0481633125296E-01
152  1.5100000000000E+00 -4.7008766287742E-01  1.0146961206684E-01
153  1.5200000000000E+00 -4.4052294875144E-01  9.7224399331135E-02
154  1.5300000000000E+00 -4.0961056775739E-01  9.2198186741257E-02
155  1.5400000000000E+00 -3.7770786729164E-01  8.6512345110108E-02
156  1.5500000000000E+00 -3.4517572722013E-01  8.0290896547947E-02
157  1.5600000000000E+00 -3.1237556523387E-01  7.3659285970951E-02
158  1.5700000000000E+00 -2.7966634605463E-01  6.6743152245346E-02
159  1.5800000000000E+00 -2.4740170719617E-01  5.9667144545026E-02
160  1.5900000000000E+00 -2.1592699128776E-01  5.2553701098493E-02
161  1.6000000000000E+00 -1.8557640574002E-01  4.5521881186141E-02
162  1.6100000000000E+00 -1.5667154926184E-01  3.8686734869014E-02
163  1.6200000000000E+00 -1.2951756421841E-01  3.2157742518849E-02
164  1.6300000000000E+00 -1.0439770946404E-01  2.6036645996215E-02
165  1.6400000000000E+00 -8.1568854142519E-02  2.0415614462882E-02
166  1.6500000000000E+00 -6.1256114077209E-02  1.5375062291123E-02
167  1.6600000000000E+00 -4.3662947071431E-02  1.0985803727030E-02
168  1.6700000000000E+00 -2.8915126477698E-02  7.2947643603085E-03
169  1.6800000000000E+00 -1.7072543745374E-02  4.3271073435781E-03
170  1.6900000000000E+00 -8.4141199295114E-03  2.1604662522462E-03
171  1.7000000000000E+00 -3.1348059477269E-03  8.4781858891510E-04
172  1.7100000000000E+00 -6.3689629103261E-04  2.2550831516867E-04
173  1.7200000000000E+00  1.2139431156865E-04  1.3536709095638E-05
174  1.7300000000000E+00  7.2344443926937E-05 -8.2323943392298E-06
175  1.7400000000000E+00 -6.1672835304282E-05  8.9260753140888E-06
176  1.7500000000000E+00 -3.8384803914599E-05  6.1355982196685E-06
177  1.7600000000000E+00  8.9605557506661E-06 -9.6633309034069E-07
178  1.7700000000000E+00  7.8420723517134E-06 -9.4858062463998E-07
179  1.7800000000000E+00  5.6500266651977E-07 -2.6633036948304E-07
180  1.7900000000000E+00  6.4778376688721E-07 -3.0535163850266E-07
181  1.8000000000000E+00  0.0000000000000E+00  0.0000000000000E+00
182  1.8100000000000E+00  0.0000000000000E+00  0.0000000000000E+00
183  1.8200000000000E+00  0.0000000000000E+00  0.0000000000000E+00
184  1.8300000000000E+00  0.0000000000000E+00  0.0000000000000E+00
185  1.8400000000000E+00  0.0000000000000E+00  0.0000000000000E+00
186  1.8500000000000E+00  0.0000000000000E+00  0.0000000000000E+00
187  1.8600000000000E+00  0.0000000000000E+00  0.0000000000000E+00
188  1.8700000000000E+00  0.0000000000000E+00  0.0000000000000E+00
189  1.8800000000000E+00  0.0000000000000E+00  0.0000000000000E+00
190  1.8900000000000E+00  0.0000000000000E+00  0.0000000000000E+00
191  1.9000000000000E+00  0.0000000000000E+00  0.0000000000000E+00
192  1.9100000000000E+00  0.0000000000000E+00  0.0000000000000E+00
193  1.9200000000000E+00  0.0000000000000E+00  0.0000000000000E+00
194  1.9300000000000E+00  0.0000000000000E+00  0.0000000000000E+00
195  1.9400000000000E+00  0.0000000000000E+00  0.0000000000000E+00
196  1.9500000000000E+00  0.0000000000000E+00  0.0000000000000E+00
197  1.9600000000000E+00  0.0000000000000E+00  0.0000000000000E+00
198  1.9700000000000E+00  0.0000000000000E+00  0.0000000000000E+00
199  1.9800000000000E+00  0.0000000000000E+00  0.0000000000000E+00
200  1.9900000000000E+00  0.0000000000000E+00  0.0000000000000E+00
201  2.0000000000000E+00  0.0000000000000E+00  0.0000000000000E+00
202  2.0100000000000E+00  0.0000000000000E+00  0.0000000000000E+00
203  2.0200000000000E+00  0.0000000000000E+00  0.0000000000000E+00
204  2.0300000000000E+00  0.0000000000000E+00  0.0000000000000E+00
205  2.0400000000000E+00  0.0000000000000E+00  0.0000000000000E+00
206  2.0500000000000E+00  0.0000000000000E+00  0.0000000000000E+00
207  2.0600000000000E+00  0.0000000000000E+00  0.0000000000000E+00
208  2.0700000000000E+00  0.0000000000000E+00  0.0000000000000E+00
209  2.0800000000000E+00  0.0000000000000E+00  0.0000000000000E+00
210  2.0900000000000E+00  0.0000000000000E+00  0.0000000000000E+00
211  2.1000000000000E+00  0.0000000000000E+00  0.0000000000000E+00
212  2.1100000000000E+00  0.0000000000000E+00  0.0000000000000E+00
213  2.1200000000000E+00  0.0000000000000E+00  0.0000000000000E+00
214  2.1300000000000E+00  0.0000000000000E+00  0.0000000000000E+00
215  2.1400000000000E+00  0.0000000000000E+00  0.0000000000000E+00
216  2.1500000000000E+00  0.0000000000000E+00  0.0000000000000E+00
217  2.1600000000000E+00  0.0000000000000E+00  0.0000000000000E+00
218  2.1700000000000E+00  0.0000000000000E+00  0.0000000000000E+00
219  2.1800000000000E+00  0.0000000000000E+00  0.0000000000000E+00
220  2.1900000000000E+00  0.0000000000000E+00  0.0000000000000E+00
221  2.2000000000000E+00  0.0000000000000E+00  0.0000000000000E+00
222  2.2100000000000E+00  0.0000000000000E+00  0.0000000000000E+00
223  2.2200000000000E+00  0.0000000000000E+00  0.0000000000000E+00
224  2.2300000000000E+00  0.0000000000000E+00  0.0000000000000E+00
225  2.2400000000000E+00  0.0000000000000E+00  0.0000000000000E+00
226  2.2500000000000E+00  0.0000000000000E+00  0.0000000000000E+00
227  2.2600000000000E+00  0.0000000000000E+00  0.0000000000000E+00
228  2.2700000000000E+00  0.0000000000000E+00  0.0000000000000E+00
229  2.2800000000000E+00  0.0000000000000E+00  0.0000000000000E+00
230  2.2900000000000E+00  0.0000000000000E+00  0.0000000000000E+00
231  2.3000000000000E+00  0.0000000000000E+00  0.0000000000000E+00
232  2.3100000000000E+00  0.0000000000000E+00  0.0000000000000E+00
233  2.3200000000000E+00  0.0000000000000E+00  0.0000000000000E+00
234  2.3300000000000E+00  0.0000000000000E+00  0.0000000000000E+00
235  2.3400000000000E+00  0.0000000000000E+00  0.0000000000000E+00
236  2.3500000000000E+00  0.0000000000000E+00  0.0000000000000E+00
237  2.3600000000000E+00  0.0000000000000E+00  0.0000000000000E+00
238  2.3700000000000E+00  0.0000000000000E+00  0.0000000000000E+00
239  2.3800000000000E+00  0.0000000000000E+00  0.0000000000000E+00
240  2.3900000000000E+00  0.0000000000000E+00  0.0000000000000E+00
241  2.4000000000000E+00  0.0000000000000E+00  0.0000000000000E+00
242  2.4100000000000E+00  0.0000000000000E+00  0.0000000000000E+00
243  2.4200000000000E+00  0.0000000000000E+00  0.0000000000000E+00
244  2.4300000000000E+00  0.0000000000000E+00  0.0000000000000E+00
245  2.4400000000000E+00  0.0000000000000E+00  0.0000000000000E+00
246  2.4500000000000E+00  0.0000000000000E+00  0.0000000000000E+00
247  2.4600000000000E+00  0.0000000000000E+00  0.0000000000000E+00
248  2.4700000000000E+00  0.0000000000000E+00  0.0000000000000E+00
249  2.4800000000000E+00  0.0000000000000E+00  0.0000000000000E+00
250  2.4900000000000E+00  0.0000000000000E+00  0.0000000000000E+00
251  2.5000000000000E+00  0.0000000000000E+00  0.0000000000000E+00
252  2.5100000000000E+00  0.0000000000000E+00  0.0000000000000E+00
253  2.5200000000000E+00  0.0000000000000E+00  0.0000000000000E+00
254  2.5300000000000E+00  0.0000000000000E+00  0.0000000000000E+00
255  2.5400000000000E+00  0.0000000000000E+00  0.0000000000000E+00
256  2.5500000000000E+00  0.0000000000000E+00  0.0000000000000E+00
257  2.5600000000000E+00  0.0000000000000E+00  0.0000000000000E+00
258  2.5700000000000E+00  0.0000000000000E+00  0.0000000000000E+00
259  2.5800000000000E+00  0.0000000000000E+00  0.0000000000000E+00
260  2.5900000000000E+00  0.0000000000000E+00  0.0000000000000E+00
261  2.6000000000000E+00  0.0000000000000E+00  0.0000000000000E+00
262  2.6100000000000E+00  0.0000000000000E+00  0.0000000000000E+00
263  2.6200000000000E+00  0.0000000000000E+00  0.0000000000000E+00
264  2.6300000000000E+00  0.0000000000000E+00  0.0000000000000E+00
265  2.6400000000000E+00  0.0000000000000E+00  0.0000000000000E+00
266  2.6500000000000E+00  0.0000000000000E+00  0.0000000000000E+00
267  2.6600000000000E+00  0.0000000000000E+00  0.0000000000000E+00
268  2.6700000000000E+00  0.0000000000000E+00  0.0000000000000E+00
269  2.6800000000000E+00  0.0000000000000E+00  0.0000000000000E+00
270  2.6900000000000E+00  0.0000000000000E+00  0.0000000000000E+00
271  2.7000000000000E+00  0.0000000000000E+00  0.0000000000000E+00
272  2.7100000000000E+00  0.0000000000000E+00  0.0000000000000E+00
273  2.7200000000000E+00  0.0000000000000E+00  0.0000000000000E+00
274  2.7300000000000E+00  0.0000000000000E+00  0.0000000000000E+00
275  2.7400000000000E+00  0.0000000000000E+00  0.0000000000000E+00
276  2.7500000000000E+00  0.0000000000000E+00  0.0000000000000E+00
277  2.7600000000000E+00  0.0000000000000E+00  0.0000000000000E+00
278  2.7700000000000E+00  0.0000000000000E+00  0.0000000000000E+00
279  2.7800000000000E+00  0.0000000000000E+00  0.0000000000000E+00
280  2.7900000000000E+00  0.0000000000000E+00  0.0000000000000E+00
281  2.8000000000000E+00  0.0000000000000E+00  0.0000000000000E+00
282  2.8100000000000E+00  0.0000000000000E+00  0.0000000000000E+00
283  2.8200000000000E+00  0.0000000000000E+00  0.0000000000000E+00
284  2.8300000000000E+00  0.0000000000000E+00  0.0000000000000E+00
285  2.8400000000000E+00  0.0000000000000E+00  0.0000000000000E+00
286  2.8500000000000E+00  0.0000000000000E+00  0.0000000000000E+00
287  2.8600000000000E+00  0.0000000000000E+00  0.0000000000000E+00
288  2.8700000000000E+00  0.0000000000000E+00  0.0000000000000E+00
289  2.8800000000000E+00  0.0000000000000E+00  0.0000000000000E+00
290  2.8900000000000E+00  0.0000000000000E+00  0.0000000000000E+00
291  2.9000000000000E+00  0.0000000000000E+00  0.0000000000000E+00
292  2.9100000000000E+00  0.0000000000000E+00  0.0000000000000E+00
293  2.9200000000000E+00  0.0000000000000E+00  0.0000000000000E+00
294  2.9300000000000E+00  0.0000000000000E+00  0.0000000000000E+00
295  2.9400000000000E+00  0.0000000000000E+00  0.0000000000000E+00
296  2.9500000000000E+00  0.0000000000000E+00  0.0000000000000E+00
297  2.9600000000000E+00  0.0000000000000E+00  0.0000000000000E+00
298  2.9700000000000E+00  0.0000000000000E+00  0.0000000000000E+00
299  2.9800000000000E+00  0.0000000000000E+00  0.0000000000000E+00
300  2.9900000000000E+00  0.0000000000000E+00  0.0000000000000E+00
301  3.0000000000000E+00  0.0000000000000E+00  0.0000000000000E+00
302  3.0100000000000E+00  0.0000000000000E+00  0.0000000000000E+00
303  3.0200000000000E+00  0.0000000000000E+00  0.0000000000000E+00
304  3.0300000000000E+00  0.0000000000000E+00  0.0000000000000E+00
305  3.0400000000000E+00  0.0000000000000E+00  0.0000000000000E+00
306  3.0500000000000E+00  0.0000000000000E+00  0.0000000000000E+00
307  3.0600000000000E+00  0.0000000000000E+00  0.0000000000000E+00
308  3.0700000000000E+00  0.0000000000000E+00  0.0000000000000E+00
309  3.0800000000000E+00  0.0000000000000E+00  0.0000000000000E+00
310  3.0900000000000E+00  0.0000000000000E+00  0.0000000000000E+00
311  3.1000000000000E+00  0.0000000000000E+00  0.0000000000000E+00
312  3.1100000000000E+00  0.0000000000000E+00  0.0000000000000E+00
313  3.1200000000000E+00  0.0000000000000E+00  0.0000000000000E+00
314  3.1300000000000E+00  0.0000000000000E+00  0.0000000000000E+00
315  3.1400000000000E+00  0.0000000000000E+00  0.0000000000000E+00
316  3.1500000000000E+00  0.0000000000000E+00  0.0000000000000E+00
317  3.1600000000000E+00  0.0000000000000E+00  0.0000000000000E+00
318  3.1700000000000E+00  0.0000000000000E+00  0.0000000000000E+00
319  3.1800000000000E+00  0.0000000000000E+00  0.0000000000000E+00
320  3.1900000000000E+00  0.0000000000000E+00  0.0000000000000E+00
321  3.2000000000000E+00  0.0000000000000E+00  0.0000000000000E+00
322  3.2100000000000E+00  0.0000000000000E+00  0.0000000000000E+00
323  3.2200000000000E+00  0.0000000000000E+00  0.0000000000000E+00
324  3.2300000000000E+00  0.0000000000000E+00  0.0000000000000E+00
325  3.2400000000000E+00  0.0000000000000E+00  0.0000000000000E+00
326  3.2500000000000E+00  0.0000000000000E+00  0.0000000000000E+00
327  3.2600000000000E+00  0.0000000000000E+00  0.0000000000000E+00
328  3.2700000000000E+00  0.0000000000000E+00  0.0000000000000E+00
329  3.2800000000000E+00  0.0000000000000E+00  0.0000000000000E+00
330  3.2900000000000E+00  0.0000000000000E+00  0.0000000000000E+00
331  3.3000000000000E+00  0.0000000000000E+00  0.0000000000000E+00
332  3.3100000000000E+00  0.0000000000000E+00  0.0000000000000E+00
333  3.3200000000000E+00  0.0000000000000E+00  0.0000000000000E+00
334  3.3300000000000E+00  0.0000000000000E+00  0.0000000000000E+00
335  3.3400000000000E+00  0.0000000000000E+00  0.0000000000000E+00
336  3.3500000000000E+00  0.0000000000000E+00  0.0000000000000E+00
337  3.3600000000000E+00  0.0000000000000E+00  0.0000000000000E+00
338  3.3700000000000E+00  0.0000000000000E+00  0.0000000000000E+00
339  3.3800000000000E+00  0.0000000000000E+00  0.0000000000000E+00
340  3.3900000000000E+00  0.0000000000000E+00  0.0000000000000E+00
341  3.4000000000000E+00  0.0000000000000E+00  0.0000000000000E+00
342  3.4100000000000E+00  0.0000000000000E+00  0.0000000000000E+00
343  3.4200000000000E+00  0.0000000000000E+00  0.0000000000000E+00
344  3.4300000000000E+00  0.0000000000000E+00  0.0000000000000E+00
345  3.4400000000000E+00  0.0000000000000E+00  0.0000000000000E+00
346  3.4500000000000E+00  0.0000000000000E+00  0.0000000000000E+00
347  3.4600000000000E+00  0.0000000000000E+00  0.0000000000000E+00
348  3.4700000000000E+00  0.0000000000000E+00  0.0000000000000E+00
349  3.4800000000000E+00  0.0000000000000E+00  0.0000000000000E+00
350  3.4900000000000E+00  0.0000000000000E+00  0.0000000000000E+00
351  3.5000000000000E+00  0.0000000000000E+00  0.0000000000000E+00
352  3.5100000000000E+00  0.0000000000000E+00  0.0000000000000E+00
353  3.5200000000000E+00  0.0000000000000E+00  0.0000000000000E+00
354  3.5300000000000E+00  0.0000000000000E+00  0.0000000000000E+00
355  3.5400000000000E+00  0.0000000000000E+00  0.0000000000000E+00
356  3.5500000000000E+00  0.0000000000000E+00  0.0000000000000E+00
357  3.5600000000000E+00  0.0000000000000E+00  0.0000000000000E+00
358  3.5700000000000E+00  0.0000000000000E+00  0.0000000000000E+00
359  3.5800000000000E+00  0.0000000000000E+00  0.0000000000000E+00
360  3.5900000000000E+00  0.0000000000000E+00  0.0000000000000E+00
361  3.6000000000000E+00  0.0000000000000E+00  0.0000000000000E+00
362  3.6100000000000E+00  0.0000000000000E+00  0.0000000000000E+00
363  3.6200000000000E+00  0.0000000000000E+00  0.0000000000000E+00
364  3.6300000000000E+00  0.0000000000000E+00  0.0000000000000E+00
365  3.6400000000000E+00  0.0000000000000E+00  0.0000000000000E+00
366  3.6500000000000E+00  0.0000000000000E+00  0.0000000000000E+00
367  3.6600000000000E+00  0.0000000000000E+00  0.0000000000000E+00
368  3.6700000000000E+00  0.0000000000000E+00  0.0000000000000E+00
369  3.6800000000000E+00  0.0000000000000E+00  0.0000000000000E+00
370  3.6900000000000E+00  0.0000000000000E+00  0.0000000000000E+00
371  3.7000000000000E+00  0.0000000000000E+00  0.0000000000000E+00
372  3.7100000000000E+00  0.0000000000000E+00  0.0000000000000E+00
373  3.7200000000000E+00  0.0000000000000E+00  0.0000000000000E+00
374  3.7300000000000E+00  0.0000000000000E+00  0.0000000000000E+00
375  3.7400000000000E+00  0.0000000000000E+00  0.0000000000000E+00
376  3.7500000000000E+00  0.0000000000000E+00  0.0000000000000E+00
377  3.7600000000000E+00  0.0000000000000E+00  0.0000000000000E+00
378  3.7700000000000E+00  0.0000000000000E+00  0.0000000000000E+00
379  3.7800000000000E+00  0.0000000000000E+00  0.0000000000000E+00
380  3.7900000000000E+00  0.0000000000000E+00  0.0000000000000E+00
381  3.8000000000000E+00  0.0000000000000E+00  0.0000000000000E+00
382  3.8100000000000E+00  0.0000000000000E+00  0.0000000000000E+00
383  3.8200000000000E+00  0.0000000000000E+00  0.0000000000000E+00
384  3.8300000000000E+00  0.0000000000000E+00  0.0000000000000E+00
385  3.8400000000000E+00  0.0000000000000E+00  0.0000000000000E+00
386  3.8500000000000E+00  0.0000000000000E+00  0.0000000000000E+00
387  3.8600000000000E+00  0.0000000000000E+00  0.0000000000000E+00
388  3.8700000000000E+00  0.0000000000000E+00  0.0000000000000E+00
389  3.8800000000000E+00  0.0000000000000E+00  0.0000000000000E+00
390  3.8900000000000E+00  0.0000000000000E+00  0.0000000000000E+00
391  3.9000000000000E+00  0.0000000000000E+00  0.0000000000000E+00
392  3.9100000000000E+00  0.0000000000000E+00  0.0000000000000E+00
393  3.9200000000000E+00  0.0000000000000E+00  0.0000000000000E+00
394  3.9300000000000E+00  0.0000000000000E+00  0.0000000000000E+00
395  3.9400000000000E+00  0.0000000000000E+00  0.0000000000000E+00
396  3.9500000000000E+00  0.0000000000000E+00  0.0000000000000E+00
397  3.9600000000000E+00  0.0000000000000E+00  0.0000000000000E+00
398  3.9700000000000E+00  0.0000000000000E+00  0.0000000000000E+00
399  3.9800000000000E+00  0.0000000000000E+00  0.0000000000000E+00
400  3.9900000000000E+00  0.0000000000000E+00  0.0000000000000E+00
401  4.0000000000000E+00  0.0000000000000E+00  0.0000000000000E+00
402  4.0100000000000E+00  0.0000000000000E+00  0.0000000000000E+00
403  4.0200000000000E+00  0.0000000000000E+00  0.0000000000000E+00
404  4.0300000000000E+00  0.0000000000000E+00  0.0000000000000E+00
405  4.0400000000000E+00  0.0000000000000E+00  0.0000000000000E+00
406  4.0500000000000E+00  0.0000000000000E+00  0.0000000000000E+00
407  4.0600000000000E+00  0.0000000000000E+00  0.0000000000000E+00
408  4.0700000000000E+00  0.0000000000000E+00  0.0000000000000E+00
409  4.0800000000000E+00  0.0000000000000E+00  0.0000000000000E+00
410  4.0900000000000E+00  0.0000000000000E+00  0.0000000000000E+00
411  4.1000000000000E+00  0.0000000000000E+00  0.0000000000000E+00
412  4.1100000000000E+00  0.0000000000000E+00  0.0000000000000E+00
413  4.1200000000000E+00  0.0000000000000E+00  0.0000000000000E+00
414  4.1300000000000E+00  0.0000000000000E+00  0.0000000000000E+00
415  4.1400000000000E+00  0.0000000000000E+00  0.0000000000000E+00
416  4.1500000000000E+00  0.0000000000000E+00  0.0000000000000E+00
417  4.1600000000000E+00  0.0000000000000E+00  0.0000000000000E+00
418  4.1700000000000E+00  0.0000000000000E+00  0.0000000000000E+00
419  4.1800000000000E+00  0.0000000000000E+00  0.0000000000000E+00
420  4.1900000000000E+00  0.0000000000000E+00  0.0000000000000E+00
421  4.2000000000000E+00  0.0000000000000E+00  0.0000000000000E+00
422  4.2100000000000E+00  0.0000000000000E+00  0.0000000000000E+00
423  4.2200000000000E+00  0.0000000000000E+00  0.0000000000000E+00
424  4.2300000000000E+00  0.0000000000000E+00  0.0000000000000E+00
425  4.2400000000000E+00  0.0000000000000E+00  0.0000000000000E+00
426  4.2500000000000E+00  0.0000000000000E+00  0.0000000000000E+00
427  4.2600000000000E+00  0.0000000000000E+00  0.0000000000000E+00
428  4.2700000000000E+00  0.0000000000000E+00  0.0000000000000E+00
429  4.2800000000000E+00  0.0000000000000E+00  0.0000000000000E+00
430  4.2900000000000E+00  0.0000000000000E+00  0.0000000000000E+00
431  4.3000000000000E+00  0.0000000000000E+00  0.0000000000000E+00
432  4.3100000000000E+00  0.0000000000000E+00  0.0000000000000E+00
433  4.3200000000000E+00  0.0000000000000E+00  0.0000000000000E+00
434  4.3300000000000E+00  0.0000000000000E+00  0.0000000000000E+00
435  4.3400000000000E+00  0.0000000000000E+00  0.0000000000000E+00
436  4.3500000000000E+00  0.0000000000000E+00  0.0000000000000E+00
437  4.3600000000000E+00  0.0000000000000E+00  0.0000000000000E+00
438  4.3700000000000E+00  0.0000000000000E+00  0.0000000000000E+00
439  4.3800000000000E+00  0.0000000000000E+00  0.0000000000000E+00
440  4.3900000000000E+00  0.0000000000000E+00  0.0000000000000E+00
441  4.4000000000000E+00  0.0000000000000E+00  0.0000000000000E+00
442  4.4100000000000E+00  0.0000000000000E+00  0.0000000000000E+00
443  4.4200000000000E+00  0.0000000000000E+00  0.0000000000000E+00