---------------------------------------
Begin Slurm Prolog: Nov-07-2022 17:11:06
Job ID:    213027
User ID:   bzhang376
Account:   hive-phanish6
Job name:  AbinitCTube
Partition: hive
---------------------------------------
  ABINIT 9.6.1
  
 DeprecationWarning: 

     The files file has been deprecated in Abinit9 and will be removed in Abinit10.
     Use the syntax `abinit t01.abi` where t01.abi is an input with pseudopotentials e.g.

            pseudos = "al.psp8, as.psp8"


  Give name for formatted input file: 
carbonTube.in
  Give name for formatted output file:
carbonTube.out
  Give root name for generic input files:
abi
  Give root name for generic output files:
abo
  Give root name for generic temporary files:
tmp

.Version 9.6.1 of ABINIT 
.(MPI version, prepared for a x86_64_linux_gnu10.3 computer) 

.Copyright (C) 1998-2021 ABINIT group . 
 ABINIT comes with ABSOLUTELY NO WARRANTY.
 It is free software, and you are welcome to redistribute it
 under certain conditions (GNU General Public License,
 see ~abinit/COPYING or http://www.gnu.org/copyleft/gpl.txt).

 ABINIT is a project of the Universite Catholique de Louvain,
 Corning Inc. and other collaborators, see ~abinit/doc/developers/contributors.txt .
 Please read https://docs.abinit.org/theory/acknowledgments for suggested
 acknowledgments of the ABINIT effort.
 For more information, see https://www.abinit.org .

.Starting date : Mon  7 Nov 2022.
- ( at 17h30 )
  

 ++++++++++++++++++++++++++++++++++++++++++++++++++++++++++++++++++++++++++++++

 === Build Information === 
  Version       : 9.6.1
  Build target  : x86_64_linux_gnu10.3
  Build date    : 20220727

 === Compiler Suite === 
  C compiler       : gnu10.3
  C++ compiler     : gnu10.3
  Fortran compiler : gnu10.3
  CFLAGS           : -g -O2
  CXXFLAGS         : -g -O2
  FCFLAGS          : -g -ffree-line-length-none -fallow-argument-mismatch     -I/usr/loc ...
  FC_LDFLAGS       : 

 === Optimizations === 
  Debug level        : basic
  Optimization level : standard
  Architecture       : intel_xeon

 === Multicore === 
  Parallel build : yes
  Parallel I/O   : 
  openMP support : no
  GPU support    : 

 === Connectors / Fallbacks === 
  LINALG flavor  : openblas
  FFT flavor     : fftw3
  HDF5           : yes
  NetCDF         : yes
  NetCDF Fortran : yes
  LibXC          : yes
  Wannier90      : no

 === Experimental features === 
  Exports             : 
  GW double-precision : 

 ++++++++++++++++++++++++++++++++++++++++++++++++++++++++++++++++++++++++++++++


 ++++++++++++++++++++++++++++++++++++++++++++++++++++++++++++++++++++++++++++++
 Default optimizations:
   -O2


 Optimizations for 43_ptgroups:
   -O0


 ++++++++++++++++++++++++++++++++++++++++++++++++++++++++++++++++++++++++++++++


 ++++++++++++++++++++++++++++++++++++++++++++++++++++++++++++++++++++++++++++++
 CPP options activated during the build:

                    CC_GNU                   CXX_GNU                    FC_GNU
 
              HAVE_ATOMPAW HAVE_FC_ALLOCATABLE_DT...             HAVE_FC_ASYNC
 
         HAVE_FC_BACKTRACE  HAVE_FC_COMMAND_ARGUMENT      HAVE_FC_COMMAND_LINE
 
        HAVE_FC_CONTIGUOUS           HAVE_FC_CPUTIME              HAVE_FC_EXIT
 
             HAVE_FC_FLUSH             HAVE_FC_GAMMA            HAVE_FC_GETENV
 
   HAVE_FC_IEEE_ARITHMETIC   HAVE_FC_IEEE_EXCEPTIONS          HAVE_FC_INT_QUAD
 
             HAVE_FC_IOMSG     HAVE_FC_ISO_C_BINDING  HAVE_FC_ISO_FORTRAN_2008
 
        HAVE_FC_LONG_LINES        HAVE_FC_MOVE_ALLOC  HAVE_FC_ON_THE_FLY_SHAPE
 
           HAVE_FC_PRIVATE         HAVE_FC_PROTECTED           HAVE_FC_SHIFTLR
 
         HAVE_FC_STREAM_IO            HAVE_FC_SYSTEM                HAVE_FFTW3
 
          HAVE_FORTRAN2003                 HAVE_HDF5        HAVE_LIBPAW_ABINIT
 
      HAVE_LIBTETRA_ABINIT                HAVE_LIBXC         HAVE_LINALG_AXPBY
 
        HAVE_LINALG_GEMM3M                  HAVE_MPI                 HAVE_MPI2
 
       HAVE_MPI_IALLGATHER       HAVE_MPI_IALLREDUCE        HAVE_MPI_IALLTOALL
 
       HAVE_MPI_IALLTOALLV           HAVE_MPI_IBCAST         HAVE_MPI_IGATHERV
 
        HAVE_MPI_INTEGER16               HAVE_MPI_IO HAVE_MPI_TYPE_CREATE_S...
 
               HAVE_NETCDF       HAVE_NETCDF_FORTRAN             HAVE_OS_LINUX
 
         HAVE_TIMER_ABINIT                                                      
 ++++++++++++++++++++++++++++++++++++++++++++++++++++++++++++++++++++++++++++++

- input  file    -> carbonTube.in
- output file    -> carbonTube.out
- root for input  files -> abi
- root for output files -> abo

-instrng: 77 lines of input have been read from file carbonTube.in


 Please give name of formatted atomic psp file (and finish with a newline character)
 For atom type 1, psp file is 06_C_4_1.2_1.2_pbe_n_v1.0Removed.psp8
  read the values zionpsp=  4.0 , pspcod=   8 , lmax=   1

 inpspheads: deduce mpsang = 2, n1xccc = 0.

======================================================= 
 invars1m : enter jdtset= 0

 symlatt: the Bravais lattice is tP (primitive tetragonal)
  xcart  is defined in input file (possibly in Angstrom)
 ingeo: takes atomic coordinates from input array xcart

 symlatt: the Bravais lattice is tP (primitive tetragonal)

 symlatt: the Bravais lattice is tP (primitive tetragonal)

--- !COMMENT
src_file: m_symfind.F90
src_line: 1020
message: |
    The Bravais lattice determined only from the primitive
    vectors, bravais(1)=  4, is more symmetric
    than the real one, iholohedry=  1, obtained by taking into
    account the atomic positions. Start deforming the primitive vector set.
...


 symlatt: the Bravais lattice is mC (one-face-centered monoclinic)

--- !COMMENT
src_file: m_symfind.F90
src_line: 1029
message: |
    The Bravais lattice determined from modified primitive
    vectors, bravais(1)=  2, has a lower symmetry than before,
    but is still more symmetric than the real one, iholohedry=  1
    obtained by taking into account the atomic positions.
...


 symlatt: the Bravais lattice is aP (primitive triclinic)
 symspgr: spgroup=   1  P1   (=C1^1)
 For input ecut=  1.500000E+02 best grid ngfft=     180     180      54
       max ecut=  1.561402E+02

 ==== FFT mesh ====
  FFT mesh divisions ........................   180  180   54
  Augmented FFT divisions ...................   181  181   54
  FFT algorithm .............................   312
  FFT cache size ............................    16
 getmpw: optimal value of mpw= 104446

 Symmetries : space group P1 (#  1); Bravais aP (primitive triclinic)

 getdim_nloc : deduce lmnmax  =   8, lnmax  =   4,
                      lmnmaxso=   8, lnmaxso=   4.
memory: analysis of memory needs
================================================================================
 Values of the parameters that define the memory need of the present run
     intxc =       0    ionmov =       0      iscf =       7    lmnmax =       4
     lnmax =       4     mgfft =     180  mpssoang =       2    mqgrid =    8822
     natom =      12  nloc_mem =       1    nspden =       1   nspinor =       1
    nsppol =       1      nsym =       1    n1xccc =       0    ntypat =       1
    occopt =       3   xclevel =       2
-    mband =          36        mffmem =           1         mkmem =           5
       mpw =      104446          nfft =     1749600          nkpt =           5
================================================================================
P This job should need less than                     806.760 Mbytes of memory.
  Rough estimation (10% accuracy) of disk space for files :
_ WF disk file :    286.872 Mbytes ; DEN or POT disk file :     13.350 Mbytes.
================================================================================

 Biggest array : cg(disk), with    286.8715 MBytes.
 memana : allocated an array of    286.872 Mbytes, for testing purposes.
 memana: allocated     806.760Mbytes, for testing purposes. 
 The job will continue.
--------------------------------------------------------------------------------
------------- Echo of variables that govern the present computation ------------
--------------------------------------------------------------------------------
-
- outvars: echo of selected default values                                      
-   iomode0 =  0 , fftalg0 =312 , wfoptalg0 =  0
-
- outvars: echo of global parameters not present in the input file              
-  max_nthreads =    0
-
 -outvars: echo values of preprocessed input variables --------
 
 These variables are accessible in NetCDF format (abo_OUT.nc)

            acell      1.6000000000E+01  1.6000000000E+01  4.6477851370E+00 Bohr
              amu      1.20110000E+01
           diemac      1.00000000E+00
           diemix      5.00000000E-01
             ecut      1.50000000E+02 Hartree
           ecutsm      5.00000000E-01 Hartree
-          fftalg         312
              ixc     -263267
              kpt      0.00000000E+00  0.00000000E+00  5.00000000E-02
                       0.00000000E+00  0.00000000E+00  1.50000000E-01
                       0.00000000E+00  0.00000000E+00  2.50000000E-01
                       0.00000000E+00  0.00000000E+00  3.50000000E-01
                       0.00000000E+00  0.00000000E+00  4.50000000E-01
         kptrlatt        1    0    0      0    1    0      0    0   10
          kptrlen      1.60000000E+01
P           mkmem           5
            natom          12
            nband          36
            ngfft         180     180      54
             nkpt           5
            nstep          60
             nsym           1
           ntypat           1
              occ      2.000000  2.000000  2.000000  2.000000  2.000000  2.000000
                       2.000000  2.000000  2.000000  2.000000  2.000000  2.000000
                       2.000000  2.000000  2.000000  2.000000  2.000000  2.000000
                       2.000000  2.000000  2.000000  2.000000  2.000000  2.000000
                       0.000000  0.000000  0.000000  0.000000  0.000000  0.000000
                       0.000000  0.000000  0.000000  0.000000  0.000000  0.000000
                       2.000000  2.000000  2.000000  2.000000  2.000000  2.000000
                       2.000000  2.000000  2.000000  2.000000  2.000000  2.000000
                       2.000000  2.000000  2.000000  2.000000  2.000000  2.000000
                       2.000000  2.000000  2.000000  2.000000  2.000000  2.000000
                       0.000000  0.000000  0.000000  0.000000  0.000000  0.000000
                       0.000000  0.000000  0.000000  0.000000  0.000000  0.000000
                       2.000000  2.000000  2.000000  2.000000  2.000000  2.000000
                       2.000000  2.000000  2.000000  2.000000  2.000000  2.000000
                       2.000000  2.000000  2.000000  2.000000  2.000000  2.000000
                       2.000000  2.000000  2.000000  2.000000  2.000000  2.000000
                       0.000000  0.000000  0.000000  0.000000  0.000000  0.000000
                       0.000000  0.000000  0.000000  0.000000  0.000000  0.000000
                       2.000000  2.000000  2.000000  2.000000  2.000000  2.000000
                       2.000000  2.000000  2.000000  2.000000  2.000000  2.000000
                       2.000000  2.000000  2.000000  2.000000  2.000000  2.000000
                       2.000000  2.000000  2.000000  2.000000  2.000000  2.000000
                       0.000000  0.000000  0.000000  0.000000  0.000000  0.000000
                       0.000000  0.000000  0.000000  0.000000  0.000000  0.000000
                       2.000000  2.000000  2.000000  2.000000  2.000000  2.000000
                       2.000000  2.000000  2.000000  2.000000  2.000000  2.000000
                       2.000000  2.000000  2.000000  2.000000  2.000000  2.000000
                       2.000000  2.000000  2.000000  2.000000  2.000000  2.000000
                       0.000000  0.000000  0.000000  0.000000  0.000000  0.000000
                       0.000000  0.000000  0.000000  0.000000  0.000000  0.000000
           occopt           3
           prtden           0
           prteig           0
          prtkden           1
            prtwf           0
           shiftk      0.00000000E+00  0.00000000E+00  5.00000000E-01
          spgroup           1
           toldfe      1.00000000E-05 Hartree
           tsmear      1.00000000E-03 Hartree
            typat      1  1  1  1  1  1  1  1  1  1  1  1
          usekden           1
              wtk        0.20000    0.20000    0.20000    0.20000    0.20000
           xangst      6.2674094211E+00  4.2334176687E+00  0.0000000000E+00
                       5.7915457480E+00  5.5408423654E+00  0.0000000000E+00
                       3.2164217925E+00  5.9949061974E+00  0.0000000000E+00
                       2.3220906282E+00  4.9290838194E+00  0.0000000000E+00
                       3.2164217925E+00  2.4719291400E+00  0.0000000000E+00
                       4.5866166299E+00  2.2303268214E+00  0.0000000000E+00
                       5.2504135449E+00  5.9949061974E+00  1.2297509825E+00
                       3.8802187075E+00  6.2365085161E+00  1.2297509825E+00
                       2.1994259163E+00  4.2334176687E+00  1.2297509825E+00
                       2.6752895894E+00  2.9259929721E+00  1.2297509825E+00
                       5.2504135449E+00  2.4719291400E+00  1.2297509825E+00
                       6.1447447092E+00  3.5377515180E+00  1.2297509825E+00
            xcart      1.1843687369E+01  8.0000000000E+00  0.0000000000E+00
                       1.0944435350E+01  1.0470674616E+01  0.0000000000E+00
                       6.0781563157E+00  1.1328730905E+01  0.0000000000E+00
                       4.3881153431E+00  9.3146185047E+00  0.0000000000E+00
                       6.0781563157E+00  4.6712690946E+00  0.0000000000E+00
                       8.6674493071E+00  4.2147068792E+00  0.0000000000E+00
                       9.9218436843E+00  1.1328730905E+01  2.3238925685E+00
                       7.3325506929E+00  1.1785293121E+01  2.3238925685E+00
                       4.1563126314E+00  8.0000000000E+00  2.3238925685E+00
                       5.0555646502E+00  5.5293253839E+00  2.3238925685E+00
                       9.9218436843E+00  4.6712690946E+00  2.3238925685E+00
                       1.1611884657E+01  6.6853814953E+00  2.3238925685E+00
             xred      7.4023046054E-01  5.0000000000E-01  0.0000000000E+00
                       6.8402720936E-01  6.5441716350E-01  0.0000000000E+00
                       3.7988476973E-01  7.0804568159E-01  0.0000000000E+00
                       2.7425720894E-01  5.8216365654E-01  0.0000000000E+00
                       3.7988476973E-01  2.9195431841E-01  0.0000000000E+00
                       5.4171558169E-01  2.6341917995E-01  0.0000000000E+00
                       6.2011523027E-01  7.0804568159E-01  5.0000000000E-01
                       4.5828441831E-01  7.3658082005E-01  5.0000000000E-01
                       2.5976953946E-01  5.0000000000E-01  5.0000000000E-01
                       3.1597279064E-01  3.4558283650E-01  5.0000000000E-01
                       6.2011523027E-01  2.9195431841E-01  5.0000000000E-01
                       7.2574279106E-01  4.1783634346E-01  5.0000000000E-01
            znucl        6.00000

================================================================================

 chkinp: Checking input parameters for consistency.
 DATA TYPE INFORMATION: 
 REAL:      Data type name: REAL(DP) 
            Kind value:      8
            Precision:      15
            Smallest nonnegligible quantity relative to 1: 0.22204460E-015
            Smallest positive number:                      0.22250739E-307
            Largest representable number:                  0.17976931E+309
 INTEGER:   Data type name: INTEGER(default) 
            Kind value: 4
            Bit size:   32
            Largest representable number: 2147483647
 LOGICAL:   Data type name: LOGICAL 
            Kind value: 4
 CHARACTER: Data type name: CHARACTER             Kind value: 1

  ==== OpenMP parallelism is OFF ====
 
  ==== Using MPI-2 specifications ==== 
  MPI-IO support is ON
  xmpi_tag_ub ................    268435455
  xmpi_bsize_ch ..............            1
  xmpi_bsize_int .............            4
  xmpi_bsize_sp ..............            4
  xmpi_bsize_dp ..............            8
  xmpi_bsize_spc .............            8
  xmpi_bsize_dpc .............           16
  xmpio_bsize_frm ............            4
  xmpi_address_kind ..........            8
  xmpi_offset_kind ...........            8
  MPI_WTICK ..................    1.0000000000000001E-009

================================================================================
== DATASET  1 ==================================================================
-   mpi_nproc: 1, omp_nthreads: -1 (-1 if OMP is not activated)


--- !COMMENT
src_file: m_xgScalapack.F90
src_line: 236
message: |
    xgScalapack in auto mode
...


 getdim_nloc : deduce lmnmax  =   8, lnmax  =   4,
                      lmnmaxso=   8, lnmaxso=   4.
 SCAN exchange of Sun, Ruzsinszky, and Perdew
 J. Sun, A. Ruzsinszky, and J. P. Perdew, Phys. Rev. Lett. 115, 036402 (2015)
 SCAN correlation of Sun, Ruzsinszky, and Perdew
 J. Sun, A. Ruzsinszky, and J. P. Perdew, Phys. Rev. Lett. 115, 036402 (2015)

 Unit cell volume ucvol=  1.1898330E+03 bohr^3
 Angles (23,13,12)=  9.00000000E+01  9.00000000E+01  9.00000000E+01 degrees

 getcut: wavevector=  0.0000  0.0000  0.0000  ngfft= 180 180  54
         ecut(hartree)=    150.000   => boxcut(ratio)=   2.04052
- pspini: atom type   1  psp file is 06_C_4_1.2_1.2_pbe_n_v1.0Removed.psp8
- pspatm: opening atomic psp file    06_C_4_1.2_1.2_pbe_n_v1.0Removed.psp8
- C     ONCVPSP-4.0.1  r_core=   1.20716   1.25127
-  6.00000   4.00000    210705                znucl, zion, pspdat
    8   11    1    4       600   0.00000      pspcod,pspxc,lmax,lloc,mmax,r2well

--- !WARNING
src_file: m_pspini.F90
src_line: 1039
message: |
    Pseudopotential file pspxc: 11, not equal to input ixc: -263267.
    These parameters must agree to get the same xc in ABINIT code as in psp construction.
    Action: check psp design or input file.
    Assume experienced user. Execution will continue.
...

    5.99000000000000    0.00000000000000    0.00000000000000   rchrg,fchrg,qchrg
     nproj     2     2
     extension_switch     1
  valence charge integrates to:    3.9929454396310420     
  pspatm : epsatm=    4.32981377
         --- l  ekb(1:nproj) -->
             0    6.596863    0.345809
             1   -4.195516   -0.845667
 pspatm: atomic psp has been read  and splines computed

   2.49397273E+03                                ecore*ucvol(ha*bohr**3)
 ==== Info on pseudopotentials ====
  Norm-conserving pseudopotentials
  Number of pseudopotentials ..    1
  Number of types of atoms   ..    1
  Scalar calculation (no spin-orbit term)
  Nonlocal part applied using Legendre polynomials
  Max number of non-local projectors over l and type   2
  Highest angular momentum +1 .......   2
  Max number of (l,n)   components ..   4
  Max number of (l,m,n) components ..   4

 Info on the Q-grid used for form factors in spline form: 
   Number of q-points for radial functions ffspl ..   8822
   Number of q-points for vlspl ...................   8822
   vloc is computed in Reciprocal Space
   model core charge treated in real-space

  XC functional for type 1 is 11
  Pseudo valence available: yes

 wfconv:    36 bands initialized randomly with npw=104337, for ikpt=     1
 wfconv:    36 bands initialized randomly with npw=104373, for ikpt=     2
 wfconv:    36 bands initialized randomly with npw=104410, for ikpt=     3
 wfconv:    36 bands initialized randomly with npw=104446, for ikpt=     4
 wfconv:    36 bands initialized randomly with npw=104434, for ikpt=     5
_setup2: Arith. and geom. avg. npw (full set) are  104400.000  104399.992
 initro: for itypat=  1, take pseudo charge density from pp file

================================================================================

 getcut: wavevector=  0.0000  0.0000  0.0000  ngfft= 180 180  54
         ecut(hartree)=    150.000   => boxcut(ratio)=   2.04052

 1/G**2 cut-off applied in the following step : cutoff-mode = CRYSTAL

 1/G**2 cut-off applied in the following step : cutoff-mode = CRYSTAL

 1/G**2 cut-off applied in the following step : cutoff-mode = CRYSTAL

 ITER STEP NUMBER     1
 Max number of non-self-consistent loops: 2
 newocc: new Fermi energy is      -0.012258 , with nelect=     48.000000, Number of bisection calls: 42
 mkrho: echo density (plane-wave part only)
 Total charge density [el/Bohr^3]
      Maximum=    3.5528E-01  at reduced coord.    0.6944    0.3778    0.5000
      Minimum=    8.7328E-05  at reduced coord.    0.0500    0.1222    0.4444
   Integrated=    4.8000E+01
 mkrho: echo density (plane-wave part only)
 Total kinetic energy density [Ha/Bohr^3]
      Maximum=    2.4235E+00  at reduced coord.    0.6222    0.7056    0.5000
      Minimum=    5.4604E-05  at reduced coord.    0.9833    0.1000    0.0000
   Integrated=    5.1730E+01
 Total charge density [el/Bohr^3]
      Maximum=    3.5528E-01  at reduced coord.    0.6944    0.3778    0.5000
      Minimum=    8.7328E-05  at reduced coord.    0.0500    0.1222    0.4444
   Integrated=    4.8000E+01

 1/G**2 cut-off applied in the following step : cutoff-mode = CRYSTAL
 ETOT  1  -66.922613571555    -6.692E+01 1.081E-01 3.183E+04
 scprqt: <Vxc>= -2.7049591E-01 hartree

 Simple mixing update:
  residual square of the potential:    7958.2159653584295
{SCF_istep: 1 , Vnl|psi>: 1800 , wall_time: ' 12:05 [minutes] '} <<< TIME

 ITER STEP NUMBER     2
 Max number of non-self-consistent loops: 2
 newocc: new Fermi energy is       0.074687 , with nelect=     48.000000, Number of bisection calls: 41
 mkrho: echo density (plane-wave part only)
 Total charge density [el/Bohr^3]
      Maximum=    3.3393E-01  at reduced coord.    0.4278    0.2778    0.0000
      Minimum=    1.0840E-06  at reduced coord.    0.0056    0.9889    0.5000
   Integrated=    4.8000E+01
 mkrho: echo density (plane-wave part only)
 Total kinetic energy density [Ha/Bohr^3]
      Maximum=    2.4231E+00  at reduced coord.    0.2611    0.5000    0.5000
      Minimum=    3.7936E-06  at reduced coord.    0.0000    0.9944    0.4444
   Integrated=    4.9585E+01
 Total charge density [el/Bohr^3]
      Maximum=    3.3393E-01  at reduced coord.    0.4278    0.2778    0.0000
      Minimum=    1.0840E-06  at reduced coord.    0.0056    0.9889    0.5000
   Integrated=    4.8000E+01
 ETOT  2  -67.249416462712    -3.268E-01 4.988E-03 9.646E+03
 scprqt: <Vxc>= -2.7240581E-01 hartree

 Pulay update with  1 previous iterations:
 mixing of old trial potential: alpha(m:m-4)=  0.728      0.272
{SCF_istep: 2 , Vnl|psi>: 1800 , wall_time: ' 12:02 [minutes] '} <<< TIME

 ITER STEP NUMBER     3
 newocc: new Fermi energy is       0.068999 , with nelect=     48.000000, Number of bisection calls: 40
 mkrho: echo density (plane-wave part only)
 Total charge density [el/Bohr^3]
      Maximum=    3.3229E-01  at reduced coord.    0.5722    0.7222    0.5000
      Minimum=    8.3925E-07  at reduced coord.    0.9944    0.0111    0.0000
   Integrated=    4.8000E+01
 mkrho: echo density (plane-wave part only)
 Total kinetic energy density [Ha/Bohr^3]
      Maximum=    2.3809E+00  at reduced coord.    0.7389    0.5000    0.0000
      Minimum=    3.3046E-06  at reduced coord.    0.9944    0.0056    0.9630
   Integrated=    4.9509E+01
 Total charge density [el/Bohr^3]
      Maximum=    3.3229E-01  at reduced coord.    0.5722    0.7222    0.5000
      Minimum=    8.3925E-07  at reduced coord.    0.9944    0.0111    0.0000
   Integrated=    4.8000E+01
 ETOT  3  -67.259528049676    -1.011E-02 9.729E-04 3.256E+03
 scprqt: <Vxc>= -2.7157531E-01 hartree

 Pulay update with  2 previous iterations:
 mixing of old trial potential: alpha(m:m-4)=   1.06     -0.112      0.485E-01
{SCF_istep: 3 , Vnl|psi>: 900 , wall_time: ' 06:11 [minutes] '} <<< TIME

 ITER STEP NUMBER     4
 newocc: new Fermi energy is       0.073101 , with nelect=     48.000000, Number of bisection calls: 39
 mkrho: echo density (plane-wave part only)
 Total charge density [el/Bohr^3]
      Maximum=    3.3184E-01  at reduced coord.    0.4278    0.2778    0.0000
      Minimum=    8.9057E-07  at reduced coord.    0.0056    0.9889    0.5000
   Integrated=    4.8000E+01
 mkrho: echo density (plane-wave part only)
 Total kinetic energy density [Ha/Bohr^3]
      Maximum=    2.3732E+00  at reduced coord.    0.2611    0.5000    0.5000
      Minimum=    3.5238E-06  at reduced coord.    0.0000    0.0056    0.9630
   Integrated=    4.9302E+01
 Total charge density [el/Bohr^3]
      Maximum=    3.3184E-01  at reduced coord.    0.4278    0.2778    0.0000
      Minimum=    8.9057E-07  at reduced coord.    0.0056    0.9889    0.5000
   Integrated=    4.8000E+01
 ETOT  4  -67.261193240053    -1.665E-03 4.751E-04 1.170E+03
 scprqt: <Vxc>= -2.7249274E-01 hartree

 Pulay update with  3 previous iterations:
 mixing of old trial potential: alpha(m:m-4)=   1.33      0.917E-01 -0.421      0.147E-03
{SCF_istep: 4 , Vnl|psi>: 900 , wall_time: ' 06:11 [minutes] '} <<< TIME

 ITER STEP NUMBER     5
 newocc: new Fermi energy is       0.072431 , with nelect=     48.000000, Number of bisection calls: 41
 mkrho: echo density (plane-wave part only)
 Total charge density [el/Bohr^3]
      Maximum=    3.3105E-01  at reduced coord.    0.4889    0.2667    0.0000
      Minimum=    8.4130E-07  at reduced coord.    0.9944    0.0111    0.0000
   Integrated=    4.8000E+01
 mkrho: echo density (plane-wave part only)
 Total kinetic energy density [Ha/Bohr^3]
      Maximum=    2.3437E+00  at reduced coord.    0.7389    0.5000    0.0000
      Minimum=    3.4863E-06  at reduced coord.    0.0000    0.9944    0.5370
   Integrated=    4.9166E+01
 Total charge density [el/Bohr^3]
      Maximum=    3.3105E-01  at reduced coord.    0.4889    0.2667    0.0000
      Minimum=    8.4130E-07  at reduced coord.    0.9944    0.0111    0.0000
   Integrated=    4.8000E+01
 ETOT  5  -67.261998213297    -8.050E-04 2.790E-04 3.053E+02
 scprqt: <Vxc>= -2.7264973E-01 hartree

 Pulay update with  4 previous iterations:
 mixing of old trial potential: alpha(m:m-4)=  0.593      0.600      0.226E-01 -0.226      0.108E-01
{SCF_istep: 5 , Vnl|psi>: 900 , wall_time: ' 06:11 [minutes] '} <<< TIME

 ITER STEP NUMBER     6
 newocc: new Fermi energy is       0.071353 , with nelect=     48.000000, Number of bisection calls: 42
 mkrho: echo density (plane-wave part only)
 Total charge density [el/Bohr^3]
      Maximum=    3.3092E-01  at reduced coord.    0.4278    0.2778    0.0000
      Minimum=    8.2783E-07  at reduced coord.    0.0056    0.9889    0.5000
   Integrated=    4.8000E+01
 mkrho: echo density (plane-wave part only)
 Total kinetic energy density [Ha/Bohr^3]
      Maximum=    2.3471E+00  at reduced coord.    0.2611    0.5000    0.5000
      Minimum=    3.4105E-06  at reduced coord.    0.0000    0.0056    0.0370
   Integrated=    4.9187E+01
 Total charge density [el/Bohr^3]
      Maximum=    3.3092E-01  at reduced coord.    0.4278    0.2778    0.0000
      Minimum=    8.2783E-07  at reduced coord.    0.0056    0.9889    0.5000
   Integrated=    4.8000E+01
 ETOT  6  -67.262523509350    -5.253E-04 1.111E-04 7.914E+01
 scprqt: <Vxc>= -2.7242934E-01 hartree

 Pulay update with  5 previous iterations:
 mixing of old trial potential: alpha(m:m-4)=   1.37     -0.192     -0.330      0.198     -0.353E-01
{SCF_istep: 6 , Vnl|psi>: 900 , wall_time: ' 06:10 [minutes] '} <<< TIME

 ITER STEP NUMBER     7
 newocc: new Fermi energy is       0.071219 , with nelect=     48.000000, Number of bisection calls: 42
 mkrho: echo density (plane-wave part only)
 Total charge density [el/Bohr^3]
      Maximum=    3.3096E-01  at reduced coord.    0.7056    0.6056    0.0000
      Minimum=    8.1497E-07  at reduced coord.    0.0056    0.9889    0.5000
   Integrated=    4.8000E+01
 mkrho: echo density (plane-wave part only)
 Total kinetic energy density [Ha/Bohr^3]
      Maximum=    2.3428E+00  at reduced coord.    0.2611    0.5000    0.5000
      Minimum=    3.3732E-06  at reduced coord.    0.0000    0.9944    0.5370
   Integrated=    4.9195E+01
 Total charge density [el/Bohr^3]
      Maximum=    3.3096E-01  at reduced coord.    0.7056    0.6056    0.0000
      Minimum=    8.1497E-07  at reduced coord.    0.0056    0.9889    0.5000
   Integrated=    4.8000E+01
 ETOT  7  -67.262580836445    -5.733E-05 1.001E-04 2.199E+01
 scprqt: <Vxc>= -2.7234416E-01 hartree

 Pulay update with  6 previous iterations:
 mixing of old trial potential: alpha(m:m-4)=   1.10      0.203     -0.245     -0.164      0.119
{SCF_istep: 7 , Vnl|psi>: 885 , wall_time: ' 06:04 [minutes] '} <<< TIME

 ITER STEP NUMBER     8
 newocc: new Fermi energy is       0.071143 , with nelect=     48.000000, Number of bisection calls: 42
 mkrho: echo density (plane-wave part only)
 Total charge density [el/Bohr^3]
      Maximum=    3.3100E-01  at reduced coord.    0.7056    0.6056    0.0000
      Minimum=    8.1316E-07  at reduced coord.    0.9944    0.0111    0.0000
   Integrated=    4.8000E+01
 mkrho: echo density (plane-wave part only)
 Total kinetic energy density [Ha/Bohr^3]
      Maximum=    2.3448E+00  at reduced coord.    0.7389    0.5000    0.0000
      Minimum=    3.3603E-06  at reduced coord.    0.0000    0.9944    0.5370
   Integrated=    4.9202E+01
 Total charge density [el/Bohr^3]
      Maximum=    3.3100E-01  at reduced coord.    0.7056    0.6056    0.0000
      Minimum=    8.1316E-07  at reduced coord.    0.9944    0.0111    0.0000
   Integrated=    4.8000E+01
 ETOT  8  -67.262586498985    -5.663E-06 2.078E-04 4.703E+00
 scprqt: <Vxc>= -2.7230127E-01 hartree

 Pulay update with  7 previous iterations:
 mixing of old trial potential: alpha(m:m-4)=  0.804      0.317      0.136E-01 -0.127     -0.587E-01
{SCF_istep: 8 , Vnl|psi>: 900 , wall_time: ' 06:11 [minutes] '} <<< TIME

 ITER STEP NUMBER     9
 newocc: new Fermi energy is       0.071148 , with nelect=     48.000000, Number of bisection calls: 43
 mkrho: echo density (plane-wave part only)
 Total charge density [el/Bohr^3]
      Maximum=    3.3105E-01  at reduced coord.    0.7056    0.6056    0.0000
      Minimum=    8.1308E-07  at reduced coord.    0.0056    0.9889    0.5000
   Integrated=    4.8000E+01
 mkrho: echo density (plane-wave part only)
 Total kinetic energy density [Ha/Bohr^3]
      Maximum=    2.3436E+00  at reduced coord.    0.2611    0.5000    0.5000
      Minimum=    3.3566E-06  at reduced coord.    0.0000    0.9944    0.5370
   Integrated=    4.9205E+01
 Total charge density [el/Bohr^3]
      Maximum=    3.3105E-01  at reduced coord.    0.7056    0.6056    0.0000
      Minimum=    8.1308E-07  at reduced coord.    0.0056    0.9889    0.5000
   Integrated=    4.8000E+01
 ETOT  9  -67.262588753245    -2.254E-06 1.888E-04 1.480E+00
 scprqt: <Vxc>= -2.7228971E-01 hartree

 At SCF step    9, etot is converged : 
  for the second time, diff in etot=  2.254E-06 < toldfe=  1.000E-05
 
 -------------------------------------------------------------------------------------------------
 Ekinetic   = :     4.920510E+01 Ha ,    1.338939E+03 eV
 Evext_l    = :    -2.128908E+02 Ha ,   -5.793052E+03 eV
 Evext_nl   = :    -2.823812E+00 Ha ,   -7.683984E+01 eV
 Epsp_core  = :     2.096070E+00 Ha ,    5.703695E+01 eV
 Ehartree   = :     8.987833E+01 Ha ,    2.445714E+03 eV
 Exc_ks     = :    -2.095493E+01 Ha ,   -5.702128E+02 eV
 Enn        = :     2.822745E+01 Ha ,    7.681081E+02 eV
 -------------------------------------------------------------------------------------------------
 Etot       = :    -6.726256E+01 Ha ,   -1.830307E+03 eV
 -------------------------------------------------------------------------------------------------

 Cartesian components of stress tensor (hartree/bohr^3)
  sigma(1 1)=  1.92754730E-03  sigma(3 2)=  2.77731826E-09
  sigma(2 2)=  1.94267683E-03  sigma(3 1)=  1.46520598E-09
  sigma(3 3)=  1.95713469E-03  sigma(2 1)= -1.09625319E-05

- Creating netcdf file WITHOUT MPI-IO support: abo_GSR.nc

 fftdatar_write: About to write data to: abo_KDEN with iomode: IO_MODE_FORTRAN
 IO operation completed. cpu:  0.00 [s] , wall:  0.07 [s] <<< TIME
 Integrated electronic density in atomic spheres:
 ------------------------------------------------
 Atom  Sphere_radius  Integrated_density
    1        2.00000          4.86975712
    2        2.00000          4.86823012
    3        2.00000          4.86847008
    4        2.00000          4.87061495
    5        2.00000          4.86810764
    6        2.00000          4.86426596
    7        2.00000          4.86798796
    8        2.00000          4.86450892
    9        2.00000          4.87003239
   10        2.00000          4.86822945
   11        2.00000          4.86820709
   12        2.00000          4.87029305
================================================================================

 ----iterations are completed or convergence reached----


 === Gap info ===
  >>>> For spin  1
   Minimum direct gap =   0.2890 [eV], located at k-point      :   0.0000  0.0000  0.2500
   Fundamental gap    =   0.2890 [eV], Top of valence bands at :   0.0000  0.0000  0.2500
                                       Bottom of conduction at :   0.0000  0.0000  0.2500
 Mean square residual over all n,k,spin=   11.879E-07; max=  18.882E-05
   0.0000  0.0000  0.0500    1  3.26401E-06 kpt; spin; max resid(k); each band:
  7.57E-08 6.73E-08 8.78E-08 1.08E-07 5.41E-08 8.85E-08 7.89E-08 9.22E-08
  7.48E-08 6.89E-08 5.81E-08 9.10E-08 8.77E-08 6.62E-08 1.03E-07 6.34E-08
  7.14E-08 6.71E-08 8.84E-08 8.09E-08 4.38E-08 6.82E-08 7.86E-08 5.93E-08
  5.82E-08 2.50E-08 5.75E-08 5.79E-08 6.37E-08 5.57E-08 7.85E-08 5.83E-08
  5.18E-08 2.95E-08 8.69E-08 3.26E-06
   0.0000  0.0000  0.1500    1  6.49560E-07 kpt; spin; max resid(k); each band:
  7.59E-08 6.73E-08 8.81E-08 1.08E-07 5.41E-08 8.85E-08 7.82E-08 9.25E-08
  7.34E-08 8.51E-08 6.94E-08 6.76E-08 1.01E-07 6.18E-08 9.06E-08 8.87E-08
  6.81E-08 6.37E-08 7.12E-08 7.96E-08 6.81E-08 8.27E-08 4.44E-08 5.97E-08
  6.10E-08 5.49E-08 3.52E-08 6.00E-08 6.52E-08 6.49E-08 6.81E-08 6.14E-08
  4.17E-08 1.17E-08 2.20E-08 6.50E-07
   0.0000  0.0000  0.2500    1  1.07345E-07 kpt; spin; max resid(k); each band:
  7.63E-08 6.74E-08 8.86E-08 1.07E-07 5.45E-08 8.82E-08 7.78E-08 7.44E-08
  9.13E-08 8.19E-08 7.06E-08 8.34E-08 1.01E-07 6.25E-08 6.92E-08 6.70E-08
  8.39E-08 8.07E-08 6.88E-08 6.31E-08 5.95E-08 8.23E-08 4.53E-08 5.98E-08
  6.36E-08 6.70E-08 6.22E-08 7.36E-08 5.45E-08 2.40E-08 6.59E-08 5.38E-08
  1.85E-08 4.58E-08 1.18E-08 1.00E-07
   0.0000  0.0000  0.3500    1  7.64983E-06 kpt; spin; max resid(k); each band:
  7.69E-08 6.76E-08 8.94E-08 1.04E-07 5.77E-08 7.89E-08 8.80E-08 7.30E-08
  9.26E-08 7.84E-08 1.07E-07 5.34E-08 8.11E-08 8.00E-08 7.49E-08 7.03E-08
  6.68E-08 7.85E-08 6.89E-08 6.15E-08 6.44E-08 7.76E-08 5.26E-08 6.59E-08
  6.05E-08 5.92E-08 7.12E-08 7.29E-08 3.94E-08 6.63E-08 2.68E-08 8.41E-08
  6.11E-08 2.21E-07 7.21E-07 7.65E-06
   0.0000  0.0000  0.4500    1  1.88823E-04 kpt; spin; max resid(k); each band:
  7.77E-08 6.77E-08 9.02E-08 7.88E-08 7.13E-08 8.60E-08 1.00E-07 6.98E-08
  1.07E-07 5.60E-08 8.85E-08 8.73E-08 7.92E-08 7.72E-08 7.57E-08 7.23E-08
  6.97E-08 7.38E-08 6.83E-08 5.56E-08 7.85E-08 6.87E-08 5.64E-08 7.29E-08
  6.63E-08 5.14E-08 7.25E-08 3.37E-08 6.15E-08 6.40E-08 3.69E-08 6.58E-08
  2.08E-07 1.09E-07 2.74E-07 1.89E-04
 Fermi (or HOMO) energy (hartree) =   0.07115   Average Vxc (hartree)=  -0.27229
 Eigenvalues (hartree) for nkpt=   5  k points:
 kpt#   1, nband= 36, wtk=  0.20000, kpt=  0.0000  0.0000  0.0500 (reduced coord)
  -0.75723   -0.71802   -0.71746   -0.62159   -0.62136   -0.51033   -0.46484   -0.33724
  -0.33679   -0.28297   -0.24328   -0.24258   -0.22919   -0.19846   -0.19786   -0.14448
  -0.14427   -0.12092   -0.12061   -0.09392   -0.08732   -0.07695   -0.07083    0.02295
   0.10541    0.17667    0.19627    0.21711    0.22727    0.25631    0.25827    0.26886
   0.28215    0.28644    0.29996    0.33680
      occupation numbers for kpt#   1
   2.00000    2.00000    2.00000    2.00000    2.00000    2.00000    2.00000    2.00000
   2.00000    2.00000    2.00000    2.00000    2.00000    2.00000    2.00000    2.00000
   2.00000    2.00000    2.00000    2.00000    2.00000    2.00000    2.00000    2.00000
   0.00000    0.00000    0.00000    0.00000    0.00000    0.00000    0.00000    0.00000
   0.00000    0.00000    0.00000    0.00000
 kpt#   2, nband= 36, wtk=  0.20000, kpt=  0.0000  0.0000  0.1500 (reduced coord)
  -0.74311   -0.70421   -0.70365   -0.60846   -0.60824   -0.49806   -0.45527   -0.33407
  -0.33371   -0.28410   -0.26703   -0.24740   -0.24690   -0.23640   -0.23575   -0.17860
  -0.17853   -0.13239   -0.13225   -0.11927   -0.10077   -0.08042   -0.07409    0.03747
   0.10234    0.19390    0.19507    0.21014    0.23592    0.24181    0.24224    0.28505
   0.29676    0.30281    0.31211    0.35985
      occupation numbers for kpt#   2
   2.00000    2.00000    2.00000    2.00000    2.00000    2.00000    2.00000    2.00000
   2.00000    2.00000    2.00000    2.00000    2.00000    2.00000    2.00000    2.00000
   2.00000    2.00000    2.00000    2.00000    2.00000    2.00000    2.00000    2.00000
   0.00000    0.00000    0.00000    0.00000    0.00000    0.00000    0.00000    0.00000
   0.00000    0.00000    0.00000    0.00000
 kpt#   3, nband= 36, wtk=  0.20000, kpt=  0.0000  0.0000  0.2500 (reduced coord)
  -0.71504   -0.67676   -0.67620   -0.58264   -0.58242   -0.47362   -0.44651   -0.36217
  -0.36175   -0.35004   -0.27918   -0.27886   -0.27349   -0.27336   -0.23692   -0.19443
  -0.19401   -0.18955   -0.14317   -0.13104   -0.13085   -0.05565   -0.04998    0.06584
   0.07646    0.16882    0.17531    0.20621    0.20660    0.23014    0.24230    0.31419
   0.31543    0.33271    0.33646    0.36548
      occupation numbers for kpt#   3
   2.00000    2.00000    2.00000    2.00000    2.00000    2.00000    2.00000    2.00000
   2.00000    2.00000    2.00000    2.00000    2.00000    2.00000    2.00000    2.00000
   2.00000    2.00000    2.00000    2.00000    2.00000    2.00000    2.00000    1.99017
   0.00983    0.00000    0.00000    0.00000    0.00000    0.00000    0.00000    0.00000
   0.00000    0.00000    0.00000    0.00000
 kpt#   4, nband= 36, wtk=  0.20000, kpt=  0.0000  0.0000  0.3500 (reduced coord)
  -0.67338   -0.63619   -0.63561   -0.54625   -0.54601   -0.48461   -0.43721   -0.43203
  -0.43157   -0.35967   -0.34810   -0.34804   -0.26280   -0.26177   -0.26148   -0.21972
  -0.18731   -0.18693   -0.16946   -0.11335   -0.11299   -0.02782   -0.02364    0.02089
   0.10625    0.12278    0.12489    0.16648    0.16728    0.23390    0.28329    0.34786
   0.34880    0.36736    0.37679    0.38949
      occupation numbers for kpt#   4
   2.00000    2.00000    2.00000    2.00000    2.00000    2.00000    2.00000    2.00000
   2.00000    2.00000    2.00000    2.00000    2.00000    2.00000    2.00000    2.00000
   2.00000    2.00000    2.00000    2.00000    2.00000    2.00000    2.00000    2.00000
   0.00000    0.00000    0.00000    0.00000    0.00000    0.00000    0.00000    0.00000
   0.00000    0.00000    0.00000    0.00000
 kpt#   5, nband= 36, wtk=  0.20000, kpt=  0.0000  0.0000  0.4500 (reduced coord)
  -0.61898   -0.58392   -0.58333   -0.55377   -0.53025   -0.52969   -0.47048   -0.47037
  -0.41901   -0.41895   -0.38925   -0.33055   -0.32117   -0.26882   -0.23230   -0.23204
  -0.20353   -0.20324   -0.11856   -0.07026   -0.06967   -0.04965   -0.02755   -0.02596
   0.10074    0.10328    0.12749    0.12942    0.15464    0.20201    0.35324    0.35684
   0.35809    0.36937    0.37462    0.40659
      occupation numbers for kpt#   5
   2.00000    2.00000    2.00000    2.00000    2.00000    2.00000    2.00000    2.00000
   2.00000    2.00000    2.00000    2.00000    2.00000    2.00000    2.00000    2.00000
   2.00000    2.00000    2.00000    2.00000    2.00000    2.00000    2.00000    2.00000
   0.00000    0.00000    0.00000    0.00000    0.00000    0.00000    0.00000    0.00000
   0.00000    0.00000    0.00000    0.00000
 Total charge density [el/Bohr^3]
      Maximum=    3.3105E-01  at reduced coord.    0.7056    0.6056    0.0000
 Next maximum=    3.3104E-01  at reduced coord.    0.2944    0.3944    0.5000
      Minimum=    8.1308E-07  at reduced coord.    0.0056    0.9889    0.5000
 Next minimum=    8.1330E-07  at reduced coord.    0.9944    0.0111    0.0000
   Integrated=    4.8000E+01

 Cartesian components of stress tensor (hartree/bohr^3)
  sigma(1 1)=  1.92754730E-03  sigma(3 2)=  2.77731826E-09
  sigma(2 2)=  1.94267683E-03  sigma(3 1)=  1.46520598E-09
  sigma(3 3)=  1.95713469E-03  sigma(2 1)= -1.09625319E-05

-Cartesian components of stress tensor (GPa)         [Pressure= -5.7149E+01 GPa]
- sigma(1 1)=  5.67103900E+01  sigma(3 2)=  8.17115106E-05
- sigma(2 2)=  5.71555159E+01  sigma(3 1)=  4.31078411E-05
- sigma(3 3)=  5.75808808E+01  sigma(2 1)= -3.22528770E-01

== END DATASET(S) ==============================================================
================================================================================
  
 -outvars: echo values of variables after computation  --------
 
 These variables are accessible in NetCDF format (abo_OUT.nc)

            acell      1.6000000000E+01  1.6000000000E+01  4.6477851370E+00 Bohr
              amu      1.20110000E+01
           diemac      1.00000000E+00
           diemix      5.00000000E-01
             ecut      1.50000000E+02 Hartree
           ecutsm      5.00000000E-01 Hartree
           etotal     -6.7262588753E+01
            fcart      2.8729219839E-02 -1.2356283549E-02  8.9405121715E-07
                       1.5550524430E-02  2.8999165042E-02 -6.1821892396E-07
                      -5.0695236707E-03  3.1425708390E-02  2.0600874625E-07
                      -3.1676085496E-02 -5.4127045179E-04 -1.2380813261E-06
                      -2.6753894585E-02 -2.0790196354E-02  8.8549178061E-08
                       1.8168789683E-02 -2.7026113224E-02 -2.3563386789E-07
                       2.6734246439E-02  2.0777103918E-02  5.1557518900E-07
                      -1.8169993048E-02  2.7032700042E-02 -4.0892079618E-07
                      -2.8728341215E-02  1.2352526193E-02  1.6447038494E-06
                      -1.5544177713E-02 -2.8976817168E-02 -3.9071861649E-07
                       5.0594133025E-03 -3.1453436843E-02  5.5333325442E-07
                       3.1699822036E-02  5.5691400616E-04 -1.0106479037E-06
-          fftalg         312
              ixc     -263267
              kpt      0.00000000E+00  0.00000000E+00  5.00000000E-02
                       0.00000000E+00  0.00000000E+00  1.50000000E-01
                       0.00000000E+00  0.00000000E+00  2.50000000E-01
                       0.00000000E+00  0.00000000E+00  3.50000000E-01
                       0.00000000E+00  0.00000000E+00  4.50000000E-01
         kptrlatt        1    0    0      0    1    0      0    0   10
          kptrlen      1.60000000E+01
P           mkmem           5
            natom          12
            nband          36
            ngfft         180     180      54
             nkpt           5
            nstep          60
             nsym           1
           ntypat           1
              occ      2.000000  2.000000  2.000000  2.000000  2.000000  2.000000
                       2.000000  2.000000  2.000000  2.000000  2.000000  2.000000
                       2.000000  2.000000  2.000000  2.000000  2.000000  2.000000
                       2.000000  2.000000  2.000000  2.000000  2.000000  2.000000
                       0.000000  0.000000  0.000000  0.000000  0.000000  0.000000
                       0.000000  0.000000  0.000000  0.000000  0.000000  0.000000
                       2.000000  2.000000  2.000000  2.000000  2.000000  2.000000
                       2.000000  2.000000  2.000000  2.000000  2.000000  2.000000
                       2.000000  2.000000  2.000000  2.000000  2.000000  2.000000
                       2.000000  2.000000  2.000000  2.000000  2.000000  2.000000
                       0.000000  0.000000  0.000000  0.000000  0.000000  0.000000
                       0.000000  0.000000  0.000000  0.000000  0.000000  0.000000
                       2.000000  2.000000  2.000000  2.000000  2.000000  2.000000
                       2.000000  2.000000  2.000000  2.000000  2.000000  2.000000
                       2.000000  2.000000  2.000000  2.000000  2.000000  2.000000
                       2.000000  2.000000  2.000000  2.000000  2.000000  1.990166
                       0.009834  0.000000  0.000000  0.000000  0.000000  0.000000
                       0.000000  0.000000  0.000000  0.000000  0.000000  0.000000
                       2.000000  2.000000  2.000000  2.000000  2.000000  2.000000
                       2.000000  2.000000  2.000000  2.000000  2.000000  2.000000
                       2.000000  2.000000  2.000000  2.000000  2.000000  2.000000
                       2.000000  2.000000  2.000000  2.000000  2.000000  2.000000
                       0.000000  0.000000  0.000000  0.000000  0.000000  0.000000
                       0.000000  0.000000  0.000000  0.000000  0.000000  0.000000
                       2.000000  2.000000  2.000000  2.000000  2.000000  2.000000
                       2.000000  2.000000  2.000000  2.000000  2.000000  2.000000
                       2.000000  2.000000  2.000000  2.000000  2.000000  2.000000
                       2.000000  2.000000  2.000000  2.000000  2.000000  2.000000
                       0.000000  0.000000  0.000000  0.000000  0.000000  0.000000
                       0.000000  0.000000  0.000000  0.000000  0.000000  0.000000
           occopt           3
           prtden           0
           prteig           0
          prtkden           1
            prtwf           0
           shiftk      0.00000000E+00  0.00000000E+00  5.00000000E-01
          spgroup           1
           strten      1.9275473007E-03  1.9426768250E-03  1.9571346892E-03
                       2.7773182625E-09  1.4652059848E-09 -1.0962531935E-05
           toldfe      1.00000000E-05 Hartree
           tsmear      1.00000000E-03 Hartree
            typat      1  1  1  1  1  1  1  1  1  1  1  1
          usekden           1
              wtk        0.20000    0.20000    0.20000    0.20000    0.20000
           xangst      6.2674094211E+00  4.2334176687E+00  0.0000000000E+00
                       5.7915457480E+00  5.5408423654E+00  0.0000000000E+00
                       3.2164217925E+00  5.9949061974E+00  0.0000000000E+00
                       2.3220906282E+00  4.9290838194E+00  0.0000000000E+00
                       3.2164217925E+00  2.4719291400E+00  0.0000000000E+00
                       4.5866166299E+00  2.2303268214E+00  0.0000000000E+00
                       5.2504135449E+00  5.9949061974E+00  1.2297509825E+00
                       3.8802187075E+00  6.2365085161E+00  1.2297509825E+00
                       2.1994259163E+00  4.2334176687E+00  1.2297509825E+00
                       2.6752895894E+00  2.9259929721E+00  1.2297509825E+00
                       5.2504135449E+00  2.4719291400E+00  1.2297509825E+00
                       6.1447447092E+00  3.5377515180E+00  1.2297509825E+00
            xcart      1.1843687369E+01  8.0000000000E+00  0.0000000000E+00
                       1.0944435350E+01  1.0470674616E+01  0.0000000000E+00
                       6.0781563157E+00  1.1328730905E+01  0.0000000000E+00
                       4.3881153431E+00  9.3146185047E+00  0.0000000000E+00
                       6.0781563157E+00  4.6712690946E+00  0.0000000000E+00
                       8.6674493071E+00  4.2147068792E+00  0.0000000000E+00
                       9.9218436843E+00  1.1328730905E+01  2.3238925685E+00
                       7.3325506929E+00  1.1785293121E+01  2.3238925685E+00
                       4.1563126314E+00  8.0000000000E+00  2.3238925685E+00
                       5.0555646502E+00  5.5293253839E+00  2.3238925685E+00
                       9.9218436843E+00  4.6712690946E+00  2.3238925685E+00
                       1.1611884657E+01  6.6853814953E+00  2.3238925685E+00
             xred      7.4023046054E-01  5.0000000000E-01  0.0000000000E+00
                       6.8402720936E-01  6.5441716350E-01  0.0000000000E+00
                       3.7988476973E-01  7.0804568159E-01  0.0000000000E+00
                       2.7425720894E-01  5.8216365654E-01  0.0000000000E+00
                       3.7988476973E-01  2.9195431841E-01  0.0000000000E+00
                       5.4171558169E-01  2.6341917995E-01  0.0000000000E+00
                       6.2011523027E-01  7.0804568159E-01  5.0000000000E-01
                       4.5828441831E-01  7.3658082005E-01  5.0000000000E-01
                       2.5976953946E-01  5.0000000000E-01  5.0000000000E-01
                       3.1597279064E-01  3.4558283650E-01  5.0000000000E-01
                       6.2011523027E-01  2.9195431841E-01  5.0000000000E-01
                       7.2574279106E-01  4.1783634346E-01  5.0000000000E-01
            znucl        6.00000

================================================================================
  

================================================================================

 Suggested references for the acknowledgment of ABINIT usage.

 The users of ABINIT have little formal obligations with respect to the ABINIT group
 (those specified in the GNU General Public License, http://www.gnu.org/copyleft/gpl.txt).
 However, it is common practice in the scientific literature,
 to acknowledge the efforts of people that have made the research possible.
 In this spirit, please find below suggested citations of work written by ABINIT developers,
 corresponding to implementations inside of ABINIT that you have used in the present run.
 Note also that it will be of great value to readers of publications presenting these results,
 to read papers enabling them to understand the theoretical formalism and details
 of the ABINIT implementation.
 For information on why they are suggested, see also https://docs.abinit.org/theory/acknowledgments.
-
- [1] Libxc: A library of exchange and correlation functionals for density functional theory.
- M.A.L. Marques, M.J.T. Oliveira, T. Burnus, Computer Physics Communications 183, 2227 (2012).
- Comment: to be cited when LibXC is used (negative value of ixc)
- Strong suggestion to cite this paper.
- DOI and bibtex: see https://docs.abinit.org/theory/bibliography/#marques2012
-
- [2] The Abinit project: Impact, environment and recent developments.
- Computer Phys. Comm. 248, 107042 (2020).
- X.Gonze, B. Amadon, G. Antonius, F.Arnardi, L.Baguet, J.-M.Beuken,
- J.Bieder, F.Bottin, J.Bouchet, E.Bousquet, N.Brouwer, F.Bruneval,
- G.Brunin, T.Cavignac, J.-B. Charraud, Wei Chen, M.Cote, S.Cottenier,
- J.Denier, G.Geneste, Ph.Ghosez, M.Giantomassi, Y.Gillet, O.Gingras,
- D.R.Hamann, G.Hautier, Xu He, N.Helbig, N.Holzwarth, Y.Jia, F.Jollet,
- W.Lafargue-Dit-Hauret, K.Lejaeghere, M.A.L.Marques, A.Martin, C.Martins,
- H.P.C. Miranda, F.Naccarato, K. Persson, G.Petretto, V.Planes, Y.Pouillon,
- S.Prokhorenko, F.Ricci, G.-M.Rignanese, A.H.Romero, M.M.Schmitt, M.Torrent,
- M.J.van Setten, B.Van Troeye, M.J.Verstraete, G.Zerah and J.W.Zwanzig
- Comment: the fifth generic paper describing the ABINIT project.
- Note that a version of this paper, that is not formatted for Computer Phys. Comm. 
- is available at https://www.abinit.org/sites/default/files/ABINIT20.pdf .
- The licence allows the authors to put it on the Web.
- DOI and bibtex: see https://docs.abinit.org/theory/bibliography/#gonze2020
-
- [3] Optimized norm-conserving Vanderbilt pseudopotentials.
- D.R. Hamann, Phys. Rev. B 88, 085117 (2013).
- Comment: Some pseudopotential generated using the ONCVPSP code were used.
- DOI and bibtex: see https://docs.abinit.org/theory/bibliography/#hamann2013
-
- [4] ABINIT: Overview, and focus on selected capabilities
- J. Chem. Phys. 152, 124102 (2020).
- A. Romero, D.C. Allan, B. Amadon, G. Antonius, T. Applencourt, L.Baguet,
- J.Bieder, F.Bottin, J.Bouchet, E.Bousquet, F.Bruneval,
- G.Brunin, D.Caliste, M.Cote,
- J.Denier, C. Dreyer, Ph.Ghosez, M.Giantomassi, Y.Gillet, O.Gingras,
- D.R.Hamann, G.Hautier, F.Jollet, G. Jomard,
- A.Martin, 
- H.P.C. Miranda, F.Naccarato, G.Petretto, N.A. Pike, V.Planes,
- S.Prokhorenko, T. Rangel, F.Ricci, G.-M.Rignanese, M.Royo, M.Stengel, M.Torrent,
- M.J.van Setten, B.Van Troeye, M.J.Verstraete, J.Wiktor, J.W.Zwanziger, and X.Gonze.
- Comment: a global overview of ABINIT, with focus on selected capabilities .
- Note that a version of this paper, that is not formatted for J. Chem. Phys 
- is available at https://www.abinit.org/sites/default/files/ABINIT20_JPC.pdf .
- The licence allows the authors to put it on the Web.
- DOI and bibtex: see https://docs.abinit.org/theory/bibliography/#romero2020
-
- [5] Recent developments in the ABINIT software package.
- Computer Phys. Comm. 205, 106 (2016).
- X.Gonze, F.Jollet, F.Abreu Araujo, D.Adams, B.Amadon, T.Applencourt,
- C.Audouze, J.-M.Beuken, J.Bieder, A.Bokhanchuk, E.Bousquet, F.Bruneval
- D.Caliste, M.Cote, F.Dahm, F.Da Pieve, M.Delaveau, M.Di Gennaro,
- B.Dorado, C.Espejo, G.Geneste, L.Genovese, A.Gerossier, M.Giantomassi,
- Y.Gillet, D.R.Hamann, L.He, G.Jomard, J.Laflamme Janssen, S.Le Roux,
- A.Levitt, A.Lherbier, F.Liu, I.Lukacevic, A.Martin, C.Martins,
- M.J.T.Oliveira, S.Ponce, Y.Pouillon, T.Rangel, G.-M.Rignanese,
- A.H.Romero, B.Rousseau, O.Rubel, A.A.Shukri, M.Stankovski, M.Torrent,
- M.J.Van Setten, B.Van Troeye, M.J.Verstraete, D.Waroquier, J.Wiktor,
- B.Xu, A.Zhou, J.W.Zwanziger.
- Comment: the fourth generic paper describing the ABINIT project.
- Note that a version of this paper, that is not formatted for Computer Phys. Comm. 
- is available at https://www.abinit.org/sites/default/files/ABINIT16.pdf .
- The licence allows the authors to put it on the Web.
- DOI and bibtex: see https://docs.abinit.org/theory/bibliography/#gonze2016
 Proc.   0 individual time (sec): cpu=       4046.3  wall=       4057.3

 Calculation completed.
.Delivered   1 WARNINGs and   3 COMMENTs to log file.

--- !FinalSummary
program: abinit
version: 9.6.1
start_datetime: Mon Nov 07 17:30:09 2022
end_datetime: Mon Nov 07 18:37:46 2022
overall_cpu_time:        4046.3
overall_wall_time:        4057.3
exit_requested_by_user: no 
timelimit: 0
pseudos: 
    C   : f45c0a5878d0ff5b68cc5fb11402c973
usepaw: 0
mpi_procs: 1
omp_threads: 1
num_warnings: 1
num_comments: 3
...
---------------------------------------
Begin Slurm Epilog: Nov-07-2022 18:11:46
Job ID:        213027
Array Job ID:  _4294967294
User ID:       bzhang376
Account:       hive-phanish6
Job name:      AbinitCTube
Resources:     cpu=1,mem=15G,node=1
Rsrc Used:     cput=01:07:40,vmem=7048K,walltime=01:07:40,mem=5956K,energy_used=0
Partition:     hive
Nodes:         atl1-1-01-016-7-1
---------------------------------------
