
     Program PWSCF v.7.0 starts on 13Nov2022 at 14: 6:13 

     This program is part of the open-source Quantum ESPRESSO suite
     for quantum simulation of materials; please cite
         "P. Giannozzi et al., J. Phys.:Condens. Matter 21 395502 (2009);
         "P. Giannozzi et al., J. Phys.:Condens. Matter 29 465901 (2017);
         "P. Giannozzi et al., J. Chem. Phys. 152 154105 (2020);
          URL http://www.quantum-espresso.org", 
     in publications or presentations arising from this work. More details at
     http://www.quantum-espresso.org/quote

     Parallel version (MPI), running on     6 processors

     MPI processes distributed on     1 nodes
     R & G space division:  proc/nbgrp/npool/nimage =       6
     170546 MiB available memory on the printing compute node when the environment starts

     Reading input from pw.inp

     Current dimensions of program PWSCF are:
     Max number of different atomic species (ntypx) = 10
     Max number of k-points (npk) =  40000
     Max angular momentum in pseudopotentials (lmaxx) =  4
     Message from routine cell_base_init:
     DEPRECATED: use true lattice parameter, not A to a.u. conversion factor

     IMPORTANT: XC functional enforced from input :
     Exchange-correlation= HSE
                           (   1   4  12   4   0   0   0)
     EXX-fraction              =        0.25
     Any further DFT definition will be discarded
     Please, verify this is what you really want

     Message from routine setup :
     BEWARE: nonlinear core correction is not consistent with hybrid XC
     EXX: q-point mesh:     4    4    1
     EXX: setup a grid of 16 q-points centered on each k-point
     (k+q)-points:
   0.0163451   0.0283105   0.0000000         1    1
   0.0163451   0.0660579   0.0000000         2    1
   0.0163451  -0.0471842   0.0000000         3    1
   0.0163451  -0.0094368   0.0000000         4    1
   0.0490352   0.0471842   0.0000000         5    1
   0.0490352   0.0849315   0.0000000         6    1
   0.0490352  -0.0283105   0.0000000         7    1
   0.0490352   0.0094368   0.0000000         8    1
  -0.0490352  -0.0094368   0.0000000         8   -1
  -0.0490352   0.0283105   0.0000000         7   -1
  -0.0490352  -0.0849315   0.0000000         6   -1
  -0.0490352  -0.0471842   0.0000000         5   -1
  -0.0163451   0.0094368   0.0000000         4   -1
  -0.0163451   0.0471842   0.0000000         3   -1
  -0.0163451  -0.0660579   0.0000000         2   -1
  -0.0163451  -0.0283105   0.0000000         1   -1

     Subspace diagonalization in iterative solution of the eigenvalue problem:
     one sub-group per band group will be used
     scalapack distributed-memory algorithm (size of sub-group:  2*  2 procs)


     Parallelization info
     --------------------
     sticks:   dense  smooth     PW     G-vecs:    dense   smooth      PW
     Min        1075    1075    287               200753   200753   27459
     Max        1077    1077    288               200757   200757   27466
     Sum        6457    6457   1723              1204529  1204529  164767

     Using Slab Decomposition



     bravais-lattice index     =            0
     lattice parameter (alat)  =       1.0000  a.u.
     unit-cell volume          =    1114.2924 (a.u.)^3
     number of atoms/cell      =            2
     number of atomic types    =            1
     number of electrons       =        28.00
     number of Kohn-Sham states=           21
     kinetic-energy cutoff     =     400.0000  Ry
     charge density cutoff     =    1600.0000  Ry
     cutoff for Fock operator  =    1600.0000  Ry
     scf convergence threshold =      1.0E-06
     mixing beta               =       0.7000
     number of iterations used =            8  plain     mixing
     Exchange-correlation= HSE
                           (   1   4  12   4   0   0   0)
     EXX-fraction              =        0.25

     celldm(1)=   1.000000  celldm(2)=   0.000000  celldm(3)=   0.000000
     celldm(4)=   0.000000  celldm(5)=   0.000000  celldm(6)=   0.000000

     crystal axes: (cart. coord. in units of alat)
               a(1) = (   7.647561   0.000000   0.000000 )  
               a(2) = (  -3.823780   6.622982   0.000000 )  
               a(3) = (   0.000000   0.000000  22.000000 )  

     reciprocal axes: (cart. coord. in units 2 pi/alat)
               b(1) = (  0.130761  0.075495 -0.000000 )  
               b(2) = (  0.000000  0.150989  0.000000 )  
               b(3) = (  0.000000 -0.000000  0.045455 )  


     PseudoPot. # 1 for Ge read from file:
     ./32_Ge_14_2.2_2.3_pbe_n_v1.0.upf
     MD5 check sum: 4e069da32cf3f25d08f765fd27c22043
     Pseudo is Norm-conserving + core correction, Zval = 14.0
     Generated using ONCVPSP code by D. R. Hamann
     Using radial grid of 1558 points,  6 beta functions with: 
                l(1) =   0
                l(2) =   0
                l(3) =   1
                l(4) =   1
                l(5) =   2
                l(6) =   2

     atomic species   valence    mass     pseudopotential
        Ge            14.00    72.63000     Ge( 1.00)

     No symmetry found


                                    s                        frac. trans.

      isym =  1     identity                                     

 cryst.   s( 1) = (     1          0          0      )
                  (     0          1          0      )
                  (     0          0          1      )

 cart.    s( 1) = (  1.0000000  0.0000000  0.0000000 )
                  (  0.0000000  1.0000000  0.0000000 )
                  (  0.0000000  0.0000000  1.0000000 )


   Cartesian axes

     site n.     atom                  positions (alat units)
         1           Ge  tau(   1) = (   0.0000000   0.0000000  15.0121665  )
         2           Ge  tau(   2) = (   3.8237803   2.2076606  13.7116685  )

   Crystallographic axes

     site n.     atom                  positions (cryst. coord.)
         1           Ge  tau(   1) = (  0.0000000  0.0000000  0.6823712  )
         2           Ge  tau(   2) = (  0.6666667  0.3333333  0.6232577  )

     number of k points=     8  Fermi-Dirac smearing, width (Ry)=  0.0020
                       cart. coord. in units 2pi/alat
        k(    1) = (   0.0163451   0.0283105   0.0000000), wk =   0.2500000
        k(    2) = (   0.0163451   0.0660579   0.0000000), wk =   0.2500000
        k(    3) = (   0.0163451  -0.0471842   0.0000000), wk =   0.2500000
        k(    4) = (   0.0163451  -0.0094368   0.0000000), wk =   0.2500000
        k(    5) = (   0.0490352   0.0471842   0.0000000), wk =   0.2500000
        k(    6) = (   0.0490352   0.0849315   0.0000000), wk =   0.2500000
        k(    7) = (   0.0490352  -0.0283105   0.0000000), wk =   0.2500000
        k(    8) = (   0.0490352   0.0094368   0.0000000), wk =   0.2500000

                       cryst. coord.
        k(    1) = (   0.1250000   0.1250000   0.0000000), wk =   0.2500000
        k(    2) = (   0.1250000   0.3750000   0.0000000), wk =   0.2500000
        k(    3) = (   0.1250000  -0.3750000   0.0000000), wk =   0.2500000
        k(    4) = (   0.1250000  -0.1250000   0.0000000), wk =   0.2500000
        k(    5) = (   0.3750000   0.1250000   0.0000000), wk =   0.2500000
        k(    6) = (   0.3750000   0.3750000   0.0000000), wk =   0.2500000
        k(    7) = (   0.3750000  -0.3750000   0.0000000), wk =   0.2500000
        k(    8) = (   0.3750000  -0.1250000   0.0000000), wk =   0.2500000

     Dense  grid:  1204529 G-vectors     FFT dimensions: ( 100, 100, 288)

     Dynamical RAM for                 wfc:       8.04 MB

     Dynamical RAM for     wfc (w. buffer):      72.35 MB

     Dynamical RAM for                 EXX:    2208.17 MB

     Dynamical RAM for           str. fact:       3.06 MB

     Dynamical RAM for           local pot:       0.00 MB

     Dynamical RAM for          nlocal pot:      13.78 MB

     Dynamical RAM for                qrad:       3.31 MB

     Dynamical RAM for          rho,v,vnew:      20.18 MB

     Dynamical RAM for               rhoin:       6.73 MB

     Dynamical RAM for            rho*nmix:      49.01 MB

     Dynamical RAM for           G-vectors:      13.02 MB

     Dynamical RAM for          h,s,v(r/c):       0.02 MB

     Dynamical RAM for          <psi|beta>:       0.01 MB

     Dynamical RAM for                 psi:      16.08 MB

     Dynamical RAM for                hpsi:      16.08 MB

     Dynamical RAM for      wfcinit/wfcrot:      16.09 MB

     Estimated static dynamical RAM per process >       2.31 GB

     Estimated max dynamical RAM per process >       2.39 GB

     Estimated total dynamical RAM >      14.33 GB

     Initial potential from superposition of free atoms

     starting charge      27.9984, renormalised to      28.0000

     negative rho (up, down):  6.507E-07 0.000E+00
     Starting wfcs are random

     total cpu time spent up to now is       10.6 secs

     per-process dynamical memory:   187.0 Mb

     Self-consistent Calculation

     iteration #  1     ecut=   400.00 Ry     beta= 0.70
     Davidson diagonalization with overlap

---- Real-time Memory Report at c_bands before calling an iterative solver
           203 MiB given to the printing process from OS
           182 MiB allocation reported by mallinfo(arena+hblkhd)
        169857 MiB available memory on the node where the printing process lives
------------------
     ethr =  1.00E-02,  avg # of iterations = 12.4

     Threshold (ethr) on eigenvalues was too large:
     Diagonalizing with lowered threshold

     Davidson diagonalization with overlap

---- Real-time Memory Report at c_bands before calling an iterative solver
           243 MiB given to the printing process from OS
           212 MiB allocation reported by mallinfo(arena+hblkhd)
        169368 MiB available memory on the node where the printing process lives
------------------
     ethr =  1.64E-04,  avg # of iterations =  5.0

     total cpu time spent up to now is       66.6 secs

     total energy              =    -321.81491111 Ry
     estimated scf accuracy    <       0.03780864 Ry

     iteration #  2     ecut=   400.00 Ry     beta= 0.70
     Davidson diagonalization with overlap

---- Real-time Memory Report at c_bands before calling an iterative solver
           287 MiB given to the printing process from OS
           256 MiB allocation reported by mallinfo(arena+hblkhd)
        169155 MiB available memory on the node where the printing process lives
------------------
     ethr =  1.35E-04,  avg # of iterations =  4.5

     total cpu time spent up to now is       78.3 secs

     total energy              =    -321.81908968 Ry
     estimated scf accuracy    <       0.00146978 Ry

     iteration #  3     ecut=   400.00 Ry     beta= 0.70
     Davidson diagonalization with overlap

---- Real-time Memory Report at c_bands before calling an iterative solver
           293 MiB given to the printing process from OS
           262 MiB allocation reported by mallinfo(arena+hblkhd)
        169275 MiB available memory on the node where the printing process lives
------------------
     ethr =  5.25E-06,  avg # of iterations =  4.4

     total cpu time spent up to now is       92.0 secs

     total energy              =    -321.81948185 Ry
     estimated scf accuracy    <       0.00032639 Ry

     iteration #  4     ecut=   400.00 Ry     beta= 0.70
     Davidson diagonalization with overlap

---- Real-time Memory Report at c_bands before calling an iterative solver
           299 MiB given to the printing process from OS
           268 MiB allocation reported by mallinfo(arena+hblkhd)
        168789 MiB available memory on the node where the printing process lives
------------------
     ethr =  1.17E-06,  avg # of iterations =  2.0

     total cpu time spent up to now is      103.8 secs

     total energy              =    -321.81954400 Ry
     estimated scf accuracy    <       0.00002070 Ry

     iteration #  5     ecut=   400.00 Ry     beta= 0.70
     Davidson diagonalization with overlap

---- Real-time Memory Report at c_bands before calling an iterative solver
           305 MiB given to the printing process from OS
           274 MiB allocation reported by mallinfo(arena+hblkhd)
        168708 MiB available memory on the node where the printing process lives
------------------
     ethr =  7.39E-08,  avg # of iterations =  2.0

     total cpu time spent up to now is      114.9 secs

     total energy              =    -321.81954560 Ry
     estimated scf accuracy    <       0.00000324 Ry

     iteration #  6     ecut=   400.00 Ry     beta= 0.70
     Davidson diagonalization with overlap

---- Real-time Memory Report at c_bands before calling an iterative solver
           311 MiB given to the printing process from OS
           281 MiB allocation reported by mallinfo(arena+hblkhd)
        168802 MiB available memory on the node where the printing process lives
------------------
     ethr =  1.16E-08,  avg # of iterations =  2.0

     total cpu time spent up to now is      126.4 secs

     total energy              =    -321.81954614 Ry
     estimated scf accuracy    <       0.00000450 Ry

     iteration #  7     ecut=   400.00 Ry     beta= 0.70
     Davidson diagonalization with overlap

---- Real-time Memory Report at c_bands before calling an iterative solver
           317 MiB given to the printing process from OS
           287 MiB allocation reported by mallinfo(arena+hblkhd)
        168558 MiB available memory on the node where the printing process lives
------------------
     ethr =  1.16E-08,  avg # of iterations =  1.9

     total cpu time spent up to now is      136.4 secs

     End of self-consistent calculation

          k = 0.0163 0.0283 0.0000 (150527 PWs)   bands (ev):

   -25.0250 -25.0122 -24.9553 -24.9450 -24.9023 -24.8588 -24.8151 -24.7864
   -24.7325 -24.7112 -11.1541  -4.9009  -2.5123  -1.9051   1.9068   2.3142
     3.1514   4.4213   4.9602   5.3723   6.0140

     occupation numbers 
     1.0000   1.0000   1.0000   1.0000   1.0000   1.0000   1.0000   1.0000
     1.0000   1.0000   1.0000   1.0000   1.0000   1.0000   0.0000   0.0000
     0.0000   0.0000   0.0000   0.0000   0.0000

          k = 0.0163 0.0661 0.0000 (150516 PWs)   bands (ev):

   -25.0413 -25.0026 -24.9904 -24.9237 -24.8907 -24.8393 -24.8235 -24.7981
   -24.7448 -24.6817  -9.7033  -7.6039  -3.1028  -1.4396   0.4143   2.2774
     4.7423   5.2971   6.4889   6.9622   7.0455

     occupation numbers 
     1.0000   1.0000   1.0000   1.0000   1.0000   1.0000   1.0000   1.0000
     1.0000   1.0000   1.0000   1.0000   1.0000   1.0000   0.0000   0.0000
     0.0000   0.0000   0.0000   0.0000   0.0000

          k = 0.0163-0.0472 0.0000 (150538 PWs)   bands (ev):

   -25.0339 -25.0174 -24.9762 -24.9175 -24.8971 -24.8450 -24.8201 -24.7998
   -24.7380 -24.6943 -10.5092  -6.3132  -2.6837  -2.1065   1.3028   2.4463
     4.0788   5.0006   5.4607   6.0046   6.4618

     occupation numbers 
     1.0000   1.0000   1.0000   1.0000   1.0000   1.0000   1.0000   1.0000
     1.0000   1.0000   1.0000   1.0000   1.0000   1.0000   0.0000   0.0000
     0.0000   0.0000   0.0000   0.0000   0.0000

          k = 0.0163-0.0094 0.0000 (150542 PWs)   bands (ev):

   -25.0163 -25.0114 -24.9627 -24.9269 -24.9248 -24.8650 -24.7968 -24.7761
   -24.7372 -24.7300 -11.4882  -4.1460  -2.2006  -1.1908   1.3538   1.9298
     3.3573   4.0457   4.3256   4.6223   6.2281

     occupation numbers 
     1.0000   1.0000   1.0000   1.0000   1.0000   1.0000   1.0000   1.0000
     1.0000   1.0000   1.0000   1.0000   1.0000   1.0000   0.0000   0.0000
     0.0000   0.0000   0.0000   0.0000   0.0000

          k = 0.0490 0.0472 0.0000 (150516 PWs)   bands (ev):

   -25.0413 -25.0026 -24.9904 -24.9237 -24.8907 -24.8393 -24.8235 -24.7981
   -24.7448 -24.6817  -9.7033  -7.6039  -3.1028  -1.4396   0.4143   2.2774
     4.7423   5.2971   6.4889   6.9622   7.0454

     occupation numbers 
     1.0000   1.0000   1.0000   1.0000   1.0000   1.0000   1.0000   1.0000
     1.0000   1.0000   1.0000   1.0000   1.0000   1.0000   0.0000   0.0000
     0.0000   0.0000   0.0000   0.0000   0.0000

          k = 0.0490 0.0849 0.0000 (150522 PWs)   bands (ev):

   -25.0531 -25.0087 -24.9903 -24.8975 -24.8789 -24.8431 -24.8248 -24.7861
   -24.7845 -24.6676  -9.0668  -8.2238  -3.9445  -0.8161  -0.0573   4.1389
     4.4022   5.8411   6.3033   6.8066   7.3806

     occupation numbers 
     1.0000   1.0000   1.0000   1.0000   1.0000   1.0000   1.0000   1.0000
     1.0000   1.0000   1.0000   1.0000   1.0000   1.0000   0.0000   0.0000
     0.0000   0.0000   0.0000   0.0000   0.0000

          k = 0.0490-0.0283 0.0000 (150514 PWs)   bands (ev):

   -25.0282 -25.0271 -24.9832 -24.9159 -24.8983 -24.8321 -24.8098 -24.8061
   -24.7363 -24.7007 -10.2213  -6.9327  -2.2267  -1.9921   0.6978   1.4979
     4.3436   5.8382   6.2886   6.3806   7.1891

     occupation numbers 
     1.0000   1.0000   1.0000   1.0000   1.0000   1.0000   1.0000   1.0000
     1.0000   1.0000   1.0000   1.0000   1.0000   1.0000   0.0000   0.0000
     0.0000   0.0000   0.0000   0.0000   0.0000

          k = 0.0490 0.0094 0.0000 (150538 PWs)   bands (ev):

   -25.0339 -25.0174 -24.9762 -24.9175 -24.8971 -24.8450 -24.8201 -24.7998
   -24.7380 -24.6943 -10.5092  -6.3132  -2.6837  -2.1065   1.3028   2.4463
     4.0788   5.0006   5.4607   6.0046   6.4618

     occupation numbers 
     1.0000   1.0000   1.0000   1.0000   1.0000   1.0000   1.0000   1.0000
     1.0000   1.0000   1.0000   1.0000   1.0000   1.0000   0.0000   0.0000
     0.0000   0.0000   0.0000   0.0000   0.0000

     the Fermi energy is    -0.4367 ev

!    total energy              =    -321.81954679 Ry
     estimated scf accuracy    <       0.00000005 Ry
     smearing contrib. (-TS)   =      -0.00000001 Ry
     internal energy E=F+TS    =    -321.81954678 Ry

     convergence has been achieved in   7 iterations

     Using ACE for calculation of exact exchange

     EXX grid:  1204529 G-vectors     FFT dimensions: ( 100, 100, 288)

     EXX: now go back to refine exchange calculation

     total cpu time spent up to now is     2664.8 secs

     Self-consistent Calculation

     iteration #  1     ecut=   400.00 Ry     beta= 0.70
     Davidson diagonalization with overlap

---- Real-time Memory Report at c_bands before calling an iterative solver
          3396 MiB given to the printing process from OS
          -735 MiB allocation reported by mallinfo(arena+hblkhd)
        150382 MiB available memory on the node where the printing process lives
------------------
     ethr =  1.16E-08,  avg # of iterations =  9.4

     total cpu time spent up to now is     2693.7 secs

     total energy              =    -312.34417777 Ry
     estimated scf accuracy    <       0.01608182 Ry

     iteration #  2     ecut=   400.00 Ry     beta= 0.70
     Davidson diagonalization with overlap

---- Real-time Memory Report at c_bands before calling an iterative solver
          3397 MiB given to the printing process from OS
          -735 MiB allocation reported by mallinfo(arena+hblkhd)
        150307 MiB available memory on the node where the printing process lives
------------------
     ethr =  5.74E-05,  avg # of iterations =  2.0

     total cpu time spent up to now is     2706.4 secs

     total energy              =    -312.34766969 Ry
     estimated scf accuracy    <       0.00030944 Ry

     iteration #  3     ecut=   400.00 Ry     beta= 0.70
     Davidson diagonalization with overlap

---- Real-time Memory Report at c_bands before calling an iterative solver
          3397 MiB given to the printing process from OS
          -735 MiB allocation reported by mallinfo(arena+hblkhd)
        149886 MiB available memory on the node where the printing process lives
------------------
     ethr =  1.11E-06,  avg # of iterations =  2.0

     total cpu time spent up to now is     2717.6 secs

     total energy              =    -312.34771660 Ry
     estimated scf accuracy    <       0.00001281 Ry

     iteration #  4     ecut=   400.00 Ry     beta= 0.70
     Davidson diagonalization with overlap

---- Real-time Memory Report at c_bands before calling an iterative solver
          3397 MiB given to the printing process from OS
          -735 MiB allocation reported by mallinfo(arena+hblkhd)
        150170 MiB available memory on the node where the printing process lives
------------------
     ethr =  4.58E-08,  avg # of iterations =  2.0

     total cpu time spent up to now is     2730.5 secs

     total energy              =    -312.34771956 Ry
     estimated scf accuracy    <       0.00000353 Ry

     iteration #  5     ecut=   400.00 Ry     beta= 0.70
     Davidson diagonalization with overlap

---- Real-time Memory Report at c_bands before calling an iterative solver
          3397 MiB given to the printing process from OS
          -735 MiB allocation reported by mallinfo(arena+hblkhd)
        150091 MiB available memory on the node where the printing process lives
------------------
     ethr =  1.26E-08,  avg # of iterations =  2.0

     total cpu time spent up to now is     2743.0 secs

     total energy              =    -312.34772022 Ry
     estimated scf accuracy    <       0.00000219 Ry

     iteration #  6     ecut=   400.00 Ry     beta= 0.70
     Davidson diagonalization with overlap

---- Real-time Memory Report at c_bands before calling an iterative solver
          3397 MiB given to the printing process from OS
          -735 MiB allocation reported by mallinfo(arena+hblkhd)
        150545 MiB available memory on the node where the printing process lives
------------------
     ethr =  7.83E-09,  avg # of iterations =  2.0

     total cpu time spent up to now is     2753.7 secs

     End of self-consistent calculation

          k = 0.0163 0.0283 0.0000 (150527 PWs)   bands (ev):

   -25.8787 -25.8656 -25.7876 -25.7676 -25.7226 -25.6540 -25.5974 -25.5704
   -25.5038 -25.4766 -12.7205  -5.7123  -3.1367  -2.5309   2.0822   2.5076
     3.4033   4.6110   5.0971   5.7942   6.2825

     occupation numbers 
     1.0000   1.0000   1.0000   1.0000   1.0000   1.0000   1.0000   1.0000
     1.0000   1.0000   1.0000   1.0000   1.0000   1.0000   0.0000   0.0000
     0.0000   0.0000   0.0000   0.0000   0.0000

          k = 0.0163 0.0661 0.0000 (150516 PWs)   bands (ev):

   -25.9016 -25.8514 -25.8322 -25.7428 -25.7098 -25.6250 -25.6172 -25.5734
   -25.5197 -25.4392 -11.1030  -8.7674  -3.8465  -1.8494   0.3743   2.5385
     5.0481   5.5946   6.7520   7.1398   7.3001

     occupation numbers 
     1.0000   1.0000   1.0000   1.0000   1.0000   1.0000   1.0000   1.0000
     1.0000   1.0000   1.0000   1.0000   1.0000   1.0000   0.0000   0.0000
     0.0000   0.0000   0.0000   0.0000   0.0000

          k = 0.0163-0.0472 0.0000 (150538 PWs)   bands (ev):

   -25.8931 -25.8672 -25.8120 -25.7392 -25.7134 -25.6432 -25.6026 -25.5825
   -25.5086 -25.4555 -12.0035  -7.3115  -3.3843  -2.6437   1.3924   2.7014
     4.2942   5.3331   5.7136   6.2719   6.7476

     occupation numbers 
     1.0000   1.0000   1.0000   1.0000   1.0000   1.0000   1.0000   1.0000
     1.0000   1.0000   1.0000   1.0000   1.0000   1.0000   0.0000   0.0000
     0.0000   0.0000   0.0000   0.0000   0.0000

          k = 0.0163-0.0094 0.0000 (150542 PWs)   bands (ev):

   -25.8650 -25.8640 -25.7919 -25.7557 -25.7477 -25.6601 -25.5756 -25.5587
   -25.5088 -25.5018 -13.0902  -4.8714  -2.7881  -1.8372   1.4978   2.1170
     3.6504   4.3969   4.4647   4.7509   6.5289

     occupation numbers 
     1.0000   1.0000   1.0000   1.0000   1.0000   1.0000   1.0000   1.0000
     1.0000   1.0000   1.0000   1.0000   1.0000   1.0000   0.0000   0.0000
     0.0000   0.0000   0.0000   0.0000   0.0000

          k = 0.0490 0.0472 0.0000 (150516 PWs)   bands (ev):

   -25.9016 -25.8514 -25.8322 -25.7428 -25.7098 -25.6250 -25.6172 -25.5734
   -25.5197 -25.4392 -11.1030  -8.7674  -3.8465  -1.8494   0.3743   2.5385
     5.0481   5.5946   6.7520   7.1398   7.3002

     occupation numbers 
     1.0000   1.0000   1.0000   1.0000   1.0000   1.0000   1.0000   1.0000
     1.0000   1.0000   1.0000   1.0000   1.0000   1.0000   0.0000   0.0000
     0.0000   0.0000   0.0000   0.0000   0.0000

          k = 0.0490 0.0849 0.0000 (150522 PWs)   bands (ev):

   -25.9186 -25.8513 -25.8320 -25.7168 -25.6874 -25.6442 -25.6175 -25.5623
   -25.5601 -25.4200 -10.3920  -9.4510  -4.7882  -1.1508  -0.1520   4.4897
     4.7879   6.1280   6.5393   7.2902   7.7056

     occupation numbers 
     1.0000   1.0000   1.0000   1.0000   1.0000   1.0000   1.0000   1.0000
     1.0000   1.0000   1.0000   1.0000   1.0000   1.0000   0.0000   0.0000
     0.0000   0.0000   0.0000   0.0000   0.0000

          k = 0.0490-0.0283 0.0000 (150514 PWs)   bands (ev):

   -25.8860 -25.8765 -25.8207 -25.7376 -25.7208 -25.6229 -25.5946 -25.5868
   -25.5036 -25.4654 -11.6818  -8.0065  -2.9900  -2.5102   0.7873   1.7329
     4.5638   6.0076   6.5543   6.7817   7.4624

     occupation numbers 
     1.0000   1.0000   1.0000   1.0000   1.0000   1.0000   1.0000   1.0000
     1.0000   1.0000   1.0000   1.0000   1.0000   1.0000   0.0000   0.0000
     0.0000   0.0000   0.0000   0.0000   0.0000

          k = 0.0490 0.0094 0.0000 (150538 PWs)   bands (ev):

   -25.8931 -25.8672 -25.8120 -25.7392 -25.7134 -25.6432 -25.6026 -25.5825
   -25.5086 -25.4555 -12.0035  -7.3115  -3.3843  -2.6437   1.3924   2.7014
     4.2942   5.3331   5.7136   6.2719   6.7476

     occupation numbers 
     1.0000   1.0000   1.0000   1.0000   1.0000   1.0000   1.0000   1.0000
     1.0000   1.0000   1.0000   1.0000   1.0000   1.0000   0.0000   0.0000
     0.0000   0.0000   0.0000   0.0000   0.0000

     the Fermi energy is    -0.6509 ev

!    total energy              =    -312.34772062 Ry
     estimated scf accuracy    <       0.00000006 Ry
     smearing contrib. (-TS)   =      -0.00000000 Ry
     internal energy E=F+TS    =    -312.34772062 Ry

     convergence has been achieved in   6 iterations

     Using ACE for calculation of exact exchange

     total energy              =    -312.34944232 Ry
     Harris-Foulkes estimate   =    -312.34944236 Ry
     est. exchange err (dexx)  =       0.00172170 Ry
     - averaged Fock potential =      11.99776533 Ry
     + Fock energy (ACE)       =      -5.98980628 Ry

     EXX: now go back to refine exchange calculation

     total cpu time spent up to now is     5252.4 secs

     Self-consistent Calculation

     iteration #  1     ecut=   400.00 Ry     beta= 0.70
     Davidson diagonalization with overlap

---- Real-time Memory Report at c_bands before calling an iterative solver
          3397 MiB given to the printing process from OS
          -735 MiB allocation reported by mallinfo(arena+hblkhd)
        151874 MiB available memory on the node where the printing process lives
------------------
     ethr =  7.83E-09,  avg # of iterations =  4.0

     total cpu time spent up to now is     5270.3 secs

     total energy              =    -312.34958642 Ry
     estimated scf accuracy    <       0.00008173 Ry

     iteration #  2     ecut=   400.00 Ry     beta= 0.70
     Davidson diagonalization with overlap

---- Real-time Memory Report at c_bands before calling an iterative solver
          3397 MiB given to the printing process from OS
          -735 MiB allocation reported by mallinfo(arena+hblkhd)
        152415 MiB available memory on the node where the printing process lives
------------------
     ethr =  2.92E-07,  avg # of iterations =  2.0

     total cpu time spent up to now is     5282.4 secs

     total energy              =    -312.34959787 Ry
     estimated scf accuracy    <       0.00000343 Ry

     iteration #  3     ecut=   400.00 Ry     beta= 0.70
     Davidson diagonalization with overlap

---- Real-time Memory Report at c_bands before calling an iterative solver
          3397 MiB given to the printing process from OS
          -735 MiB allocation reported by mallinfo(arena+hblkhd)
        151869 MiB available memory on the node where the printing process lives
------------------
     ethr =  1.22E-08,  avg # of iterations =  2.0

     total cpu time spent up to now is     5295.2 secs

     total energy              =    -312.34959788 Ry
     estimated scf accuracy    <       0.00000589 Ry

     iteration #  4     ecut=   400.00 Ry     beta= 0.70
     Davidson diagonalization with overlap

---- Real-time Memory Report at c_bands before calling an iterative solver
          3397 MiB given to the printing process from OS
          -735 MiB allocation reported by mallinfo(arena+hblkhd)
        151995 MiB available memory on the node where the printing process lives
------------------
     ethr =  1.22E-08,  avg # of iterations =  2.0

     total cpu time spent up to now is     5306.1 secs

     End of self-consistent calculation

          k = 0.0163 0.0283 0.0000 (150527 PWs)   bands (ev):

   -25.8777 -25.8650 -25.7870 -25.7660 -25.7205 -25.6508 -25.5935 -25.5667
   -25.4989 -25.4710 -12.7271  -5.7227  -3.1419  -2.5630   2.0794   2.5173
     3.4082   4.6133   5.0967   5.7908   6.2876

     occupation numbers 
     1.0000   1.0000   1.0000   1.0000   1.0000   1.0000   1.0000   1.0000
     1.0000   1.0000   1.0000   1.0000   1.0000   1.0000   0.0000   0.0000
     0.0000   0.0000   0.0000   0.0000   0.0000

          k = 0.0163 0.0661 0.0000 (150516 PWs)   bands (ev):

   -25.9009 -25.8510 -25.8320 -25.7409 -25.7073 -25.6214 -25.6139 -25.5698
   -25.5150 -25.4331 -11.1109  -8.7755  -3.8678  -1.8553   0.3694   2.5551
     5.0542   5.5977   6.7535   7.1391   7.2976

     occupation numbers 
     1.0000   1.0000   1.0000   1.0000   1.0000   1.0000   1.0000   1.0000
     1.0000   1.0000   1.0000   1.0000   1.0000   1.0000   0.0000   0.0000
     0.0000   0.0000   0.0000   0.0000   0.0000

          k = 0.0163-0.0472 0.0000 (150538 PWs)   bands (ev):

   -25.8924 -25.8667 -25.8115 -25.7377 -25.7109 -25.6399 -25.5990 -25.5791
   -25.5034 -25.4496 -12.0109  -7.3207  -3.4083  -2.6497   1.3882   2.7148
     4.2972   5.3356   5.7155   6.2727   6.7521

     occupation numbers 
     1.0000   1.0000   1.0000   1.0000   1.0000   1.0000   1.0000   1.0000
     1.0000   1.0000   1.0000   1.0000   1.0000   1.0000   0.0000   0.0000
     0.0000   0.0000   0.0000   0.0000   0.0000

          k = 0.0163-0.0094 0.0000 (150542 PWs)   bands (ev):

   -25.8639 -25.8630 -25.7907 -25.7544 -25.7461 -25.6573 -25.5713 -25.5547
   -25.5037 -25.4969 -13.0967  -4.8803  -2.8034  -1.8715   1.5096   2.1180
     3.6530   4.4017   4.4632   4.7504   6.5309

     occupation numbers 
     1.0000   1.0000   1.0000   1.0000   1.0000   1.0000   1.0000   1.0000
     1.0000   1.0000   1.0000   1.0000   1.0000   1.0000   0.0000   0.0000
     0.0000   0.0000   0.0000   0.0000   0.0000

          k = 0.0490 0.0472 0.0000 (150516 PWs)   bands (ev):

   -25.9009 -25.8510 -25.8320 -25.7409 -25.7073 -25.6214 -25.6139 -25.5698
   -25.5150 -25.4331 -11.1109  -8.7755  -3.8678  -1.8553   0.3694   2.5551
     5.0542   5.5977   6.7535   7.1391   7.2976

     occupation numbers 
     1.0000   1.0000   1.0000   1.0000   1.0000   1.0000   1.0000   1.0000
     1.0000   1.0000   1.0000   1.0000   1.0000   1.0000   0.0000   0.0000
     0.0000   0.0000   0.0000   0.0000   0.0000

          k = 0.0490 0.0849 0.0000 (150522 PWs)   bands (ev):

   -25.9181 -25.8509 -25.8317 -25.7153 -25.6843 -25.6408 -25.6142 -25.5585
   -25.5558 -25.4135 -10.4018  -9.4593  -4.7988  -1.1604  -0.1544   4.5001
     4.7945   6.1307   6.5412   7.2882   7.7027

     occupation numbers 
     1.0000   1.0000   1.0000   1.0000   1.0000   1.0000   1.0000   1.0000
     1.0000   1.0000   1.0000   1.0000   1.0000   1.0000   0.0000   0.0000
     0.0000   0.0000   0.0000   0.0000   0.0000

          k = 0.0490-0.0283 0.0000 (150514 PWs)   bands (ev):

   -25.8853 -25.8758 -25.8202 -25.7355 -25.7194 -25.6196 -25.5912 -25.5831
   -25.4980 -25.4598 -11.6900  -8.0158  -3.0173  -2.5169   0.7917   1.7502
     4.5680   6.0073   6.5542   6.7788   7.4648

     occupation numbers 
     1.0000   1.0000   1.0000   1.0000   1.0000   1.0000   1.0000   1.0000
     1.0000   1.0000   1.0000   1.0000   1.0000   1.0000   0.0000   0.0000
     0.0000   0.0000   0.0000   0.0000   0.0000

          k = 0.0490 0.0094 0.0000 (150538 PWs)   bands (ev):

   -25.8924 -25.8667 -25.8115 -25.7377 -25.7109 -25.6399 -25.5990 -25.5791
   -25.5034 -25.4496 -12.0109  -7.3207  -3.4083  -2.6497   1.3882   2.7148
     4.2972   5.3356   5.7155   6.2727   6.7521

     occupation numbers 
     1.0000   1.0000   1.0000   1.0000   1.0000   1.0000   1.0000   1.0000
     1.0000   1.0000   1.0000   1.0000   1.0000   1.0000   0.0000   0.0000
     0.0000   0.0000   0.0000   0.0000   0.0000

     the Fermi energy is    -0.6572 ev

!    total energy              =    -312.34959894 Ry
     estimated scf accuracy    <       0.00000047 Ry
     smearing contrib. (-TS)   =      -0.00000000 Ry
     internal energy E=F+TS    =    -312.34959894 Ry

     convergence has been achieved in   4 iterations

     Using ACE for calculation of exact exchange

     total energy              =    -312.34961601 Ry
     Harris-Foulkes estimate   =    -312.34961643 Ry
     est. exchange err (dexx)  =       0.00001708 Ry
     - averaged Fock potential =      11.97927404 Ry
     + Fock energy (ACE)       =      -5.98948484 Ry

     EXX: now go back to refine exchange calculation

     total cpu time spent up to now is     7801.4 secs

     Self-consistent Calculation

     iteration #  1     ecut=   400.00 Ry     beta= 0.70
     Davidson diagonalization with overlap

---- Real-time Memory Report at c_bands before calling an iterative solver
          3402 MiB given to the printing process from OS
          -735 MiB allocation reported by mallinfo(arena+hblkhd)
        151669 MiB available memory on the node where the printing process lives
------------------
     ethr =  1.22E-08,  avg # of iterations =  2.0

     total cpu time spent up to now is     7814.2 secs

     total energy              =    -312.34961572 Ry
     estimated scf accuracy    <       0.00000495 Ry

     iteration #  2     ecut=   400.00 Ry     beta= 0.70
     Davidson diagonalization with overlap

---- Real-time Memory Report at c_bands before calling an iterative solver
          3402 MiB given to the printing process from OS
          -735 MiB allocation reported by mallinfo(arena+hblkhd)
        151221 MiB available memory on the node where the printing process lives
------------------
     ethr =  1.77E-08,  avg # of iterations =  2.0

     total cpu time spent up to now is     7826.9 secs

     total energy              =    -312.34961525 Ry
     estimated scf accuracy    <       0.00001846 Ry

     iteration #  3     ecut=   400.00 Ry     beta= 0.70
     Davidson diagonalization with overlap

---- Real-time Memory Report at c_bands before calling an iterative solver
          3402 MiB given to the printing process from OS
          -735 MiB allocation reported by mallinfo(arena+hblkhd)
        151632 MiB available memory on the node where the printing process lives
------------------
     ethr =  1.77E-08,  avg # of iterations =  2.0

     total cpu time spent up to now is     7838.6 secs

     End of self-consistent calculation

          k = 0.0163 0.0283 0.0000 (150527 PWs)   bands (ev):

   -25.8760 -25.8634 -25.7854 -25.7642 -25.7186 -25.6490 -25.5915 -25.5647
   -25.4968 -25.4688 -12.7276  -5.7241  -3.1413  -2.5676   2.0797   2.5197
     3.4093   4.6140   5.0967   5.7907   6.2887

     occupation numbers 
     1.0000   1.0000   1.0000   1.0000   1.0000   1.0000   1.0000   1.0000
     1.0000   1.0000   1.0000   1.0000   1.0000   1.0000   0.0000   0.0000
     0.0000   0.0000   0.0000   0.0000   0.0000

          k = 0.0163 0.0661 0.0000 (150516 PWs)   bands (ev):

   -25.8992 -25.8494 -25.8304 -25.7391 -25.7055 -25.6195 -25.6119 -25.5679
   -25.5129 -25.4308 -11.1117  -8.7764  -3.8705  -1.8551   0.3697   2.5583
     5.0552   5.5983   6.7539   7.1391   7.2976

     occupation numbers 
     1.0000   1.0000   1.0000   1.0000   1.0000   1.0000   1.0000   1.0000
     1.0000   1.0000   1.0000   1.0000   1.0000   1.0000   0.0000   0.0000
     0.0000   0.0000   0.0000   0.0000   0.0000

          k = 0.0163-0.0472 0.0000 (150538 PWs)   bands (ev):

   -25.8907 -25.8650 -25.8099 -25.7360 -25.7090 -25.6380 -25.5970 -25.5771
   -25.5013 -25.4474 -12.0115  -7.3218  -3.4112  -2.6494   1.3885   2.7175
     4.2979   5.3361   5.7160   6.2730   6.7530

     occupation numbers 
     1.0000   1.0000   1.0000   1.0000   1.0000   1.0000   1.0000   1.0000
     1.0000   1.0000   1.0000   1.0000   1.0000   1.0000   0.0000   0.0000
     0.0000   0.0000   0.0000   0.0000   0.0000

          k = 0.0163-0.0094 0.0000 (150542 PWs)   bands (ev):

   -25.8622 -25.8613 -25.7890 -25.7526 -25.7444 -25.6555 -25.5693 -25.5527
   -25.5016 -25.4947 -13.0972  -4.8813  -2.8050  -1.8755   1.5116   2.1186
     3.6538   4.4032   4.4632   4.7504   6.5316

     occupation numbers 
     1.0000   1.0000   1.0000   1.0000   1.0000   1.0000   1.0000   1.0000
     1.0000   1.0000   1.0000   1.0000   1.0000   1.0000   0.0000   0.0000
     0.0000   0.0000   0.0000   0.0000   0.0000

          k = 0.0490 0.0472 0.0000 (150516 PWs)   bands (ev):

   -25.8992 -25.8494 -25.8304 -25.7391 -25.7055 -25.6195 -25.6119 -25.5679
   -25.5129 -25.4308 -11.1117  -8.7764  -3.8705  -1.8551   0.3697   2.5583
     5.0552   5.5983   6.7539   7.1391   7.2976

     occupation numbers 
     1.0000   1.0000   1.0000   1.0000   1.0000   1.0000   1.0000   1.0000
     1.0000   1.0000   1.0000   1.0000   1.0000   1.0000   0.0000   0.0000
     0.0000   0.0000   0.0000   0.0000   0.0000

          k = 0.0490 0.0849 0.0000 (150522 PWs)   bands (ev):

   -25.9164 -25.8493 -25.8302 -25.7135 -25.6824 -25.6388 -25.6123 -25.5566
   -25.5537 -25.4112 -10.4029  -9.4602  -4.7994  -1.1606  -0.1537   4.5018
     4.7959   6.1312   6.5416   7.2887   7.7027

     occupation numbers 
     1.0000   1.0000   1.0000   1.0000   1.0000   1.0000   1.0000   1.0000
     1.0000   1.0000   1.0000   1.0000   1.0000   1.0000   0.0000   0.0000
     0.0000   0.0000   0.0000   0.0000   0.0000

          k = 0.0490-0.0283 0.0000 (150514 PWs)   bands (ev):

   -25.8837 -25.8742 -25.8186 -25.7336 -25.7177 -25.6177 -25.5892 -25.5811
   -25.4959 -25.4576 -11.6908  -8.0170  -3.0200  -2.5168   0.7930   1.7531
     4.5687   6.0074   6.5544   6.7790   7.4651

     occupation numbers 
     1.0000   1.0000   1.0000   1.0000   1.0000   1.0000   1.0000   1.0000
     1.0000   1.0000   1.0000   1.0000   1.0000   1.0000   0.0000   0.0000
     0.0000   0.0000   0.0000   0.0000   0.0000

          k = 0.0490 0.0094 0.0000 (150538 PWs)   bands (ev):

   -25.8907 -25.8650 -25.8099 -25.7360 -25.7090 -25.6380 -25.5970 -25.5771
   -25.5013 -25.4474 -12.0115  -7.3218  -3.4112  -2.6494   1.3885   2.7175
     4.2979   5.3361   5.7160   6.2730   6.7530

     occupation numbers 
     1.0000   1.0000   1.0000   1.0000   1.0000   1.0000   1.0000   1.0000
     1.0000   1.0000   1.0000   1.0000   1.0000   1.0000   0.0000   0.0000
     0.0000   0.0000   0.0000   0.0000   0.0000

     the Fermi energy is    -0.6567 ev

!    total energy              =    -312.34961836 Ry
     estimated scf accuracy    <       0.00000003 Ry
     smearing contrib. (-TS)   =      -0.00000000 Ry
     internal energy E=F+TS    =    -312.34961836 Ry

     convergence has been achieved in   3 iterations

     Using ACE for calculation of exact exchange

!!   total energy              =    -312.34961868 Ry
     Harris-Foulkes estimate   =    -312.34961870 Ry
     est. exchange err (dexx)  =       0.00000032 Ry
     - averaged Fock potential =      11.97906712 Ry
     + Fock energy (ACE)       =      -5.98958261 Ry

     EXX self-consistency reached

     Forces acting on atoms (cartesian axes, Ry/au):

     atom    1 type  1   force =     0.00928207   -0.00535899   -0.02056020
     atom    2 type  1   force =    -0.00928207    0.00535899    0.02056020
     The non-local contrib.  to forces
     atom    1 type  1   force =     0.01427525   -0.00824180   -0.39909346
     atom    2 type  1   force =    -0.01426243    0.00823443    0.39885033
     The ionic contribution  to forces
     atom    1 type  1   force =    -0.00000003    0.00000003   18.42928954
     atom    2 type  1   force =     0.00000003   -0.00000003  -18.42928954
     The local contribution  to forces
     atom    1 type  1   force =    -0.00417683    0.00241153  -18.05695521
     atom    2 type  1   force =     0.00416765   -0.00240626   18.05778299
     The core correction contribution to forces
     atom    1 type  1   force =    -0.00085650    0.00049450    0.00638453
     atom    2 type  1   force =     0.00085603   -0.00049423   -0.00637473
     The Hubbard contrib.    to forces
     atom    1 type  1   force =     0.00000000    0.00000000    0.00000000
     atom    2 type  1   force =     0.00000000    0.00000000    0.00000000
     The SCF correction term to forces
     atom    1 type  1   force =     0.00004579   -0.00002648   -0.00065033
     atom    2 type  1   force =    -0.00003771    0.00002185   -0.00087357

     Total force =     0.032790     Total SCF correction =     0.001091


     Computing stress (Cartesian axis) and pressure

          total   stress  (Ry/bohr**3)                   (kbar)     P=       10.49
   0.00003538  -0.00000078   0.00001008            5.20       -0.11        1.48
  -0.00000078   0.00003448  -0.00000582           -0.11        5.07       -0.86
   0.00001008  -0.00000582   0.00014408            1.48       -0.86       21.20

     kinetic stress (kbar)  17327.82      4.29      3.93
                                4.29  17332.78     -2.27
                                3.93     -2.27  17373.59

     local   stress (kbar) -67465.35    -16.45     -9.17
                              -16.45 -67484.35      5.29
                               -9.17      5.29  62402.91

     nonloc. stress (kbar)  -6917.78      4.17      2.35
                                4.17  -6912.97     -1.36
                                2.35     -1.36  -6954.37

     hartree stress (kbar)  34157.75      7.71      4.18
                                7.71  34166.65     -2.42
                                4.18     -2.42 -27337.25

     exc-cor stress (kbar)   1968.44      0.15      0.13
                                0.15   1968.62     -0.07
                                0.13     -0.07   1961.80

     corecor stress (kbar)  -3731.72      0.01      0.02
                                0.01  -3731.71     -0.01
                                0.02     -0.01  -3732.70

     ewald   stress (kbar)  24938.49      0.00     -0.00
                                0.00  24938.49      0.00
                               -0.00      0.00 -43420.54

     hubbard stress (kbar)      0.00      0.00      0.00
                                0.00      0.00      0.00
                                0.00      0.00      0.00

     DFT-D   stress (kbar)      0.00      0.00      0.00
                                0.00      0.00      0.00
                                0.00      0.00      0.00

     XDM     stress (kbar)      0.00      0.00      0.00
                                0.00      0.00      0.00
                                0.00      0.00      0.00

     dft-nl  stress (kbar)      0.00      0.00      0.00
                                0.00      0.00      0.00
                                0.00      0.00      0.00

     TS-vdW  stress (kbar)      0.00      0.00      0.00
                                0.00      0.00      0.00
                                0.00      0.00      0.00


                                0.00      0.00      0.00
                                0.00      0.00      0.00


                                0.00      0.00      0.00

     EXX     stress (kbar)   -272.44      0.00      0.04
                                0.00   -272.44     -0.02
                                0.04     -0.02   -272.25



     Writing all to output data dir ./calc.save/

     init_run     :     10.34s CPU     10.51s WALL (       1 calls)
     electrons    :    298.45s CPU    305.96s WALL (       4 calls)
     forces       :      4.99s CPU      5.02s WALL (       1 calls)
     stress       :   1092.78s CPU   1129.91s WALL (       1 calls)

     Called by init_run:
     wfcinit      :      3.78s CPU      3.88s WALL (       1 calls)
     wfcinit:wfcr :      3.26s CPU      3.35s WALL (       8 calls)
     potinit      :      2.20s CPU      2.25s WALL (       1 calls)
     hinit0       :      3.93s CPU      3.95s WALL (       1 calls)

     Called by electrons:
     c_bands      :    246.70s CPU    252.84s WALL (      21 calls)
     sum_band     :     37.20s CPU     38.05s WALL (      21 calls)
     v_of_rho     :     14.64s CPU     14.90s WALL (      22 calls)
     v_h          :      0.43s CPU      0.46s WALL (      22 calls)
     v_xc         :     15.77s CPU     16.02s WALL (      24 calls)
     mix_rho      :      0.77s CPU      0.80s WALL (      21 calls)

     Called by c_bands:
     init_us_2    :      3.85s CPU      3.87s WALL (     360 calls)
     init_us_2:cp :      3.85s CPU      3.87s WALL (     360 calls)
     cegterg      :    236.00s CPU    242.09s WALL (     168 calls)

     Called by sum_band:
     sum_band:wei :      0.00s CPU      0.00s WALL (      21 calls)
     sum_band:loo :     36.45s CPU     37.26s WALL (      21 calls)
     sum_band:buf :      0.30s CPU      0.30s WALL (     168 calls)
     sum_band:ini :      1.80s CPU      1.80s WALL (     168 calls)

     Called by *egterg:
     cdiaghg      :      0.61s CPU      0.63s WALL (     692 calls)
     cegterg:over :      6.82s CPU      6.84s WALL (     556 calls)
     cegterg:upda :      6.29s CPU      6.32s WALL (     556 calls)
     cegterg:last :      7.89s CPU      7.92s WALL (     462 calls)
     cdiaghg:chol :      0.07s CPU      0.07s WALL (     692 calls)
     cdiaghg:inve :      0.01s CPU      0.01s WALL (     692 calls)
     cdiaghg:para :      0.07s CPU      0.07s WALL (    1384 calls)
     h_psi        :    213.28s CPU    219.37s WALL (     732 calls)
     g_psi        :      1.40s CPU      1.40s WALL (     556 calls)

     Called by h_psi:
     h_psi:calbec :      4.15s CPU      4.17s WALL (     732 calls)
     vloc_psi     :    199.67s CPU    205.70s WALL (     732 calls)
     add_vuspsi   :      3.80s CPU      3.81s WALL (     732 calls)

     General routines
     calbec       :      6.66s CPU      6.69s WALL (    1303 calls)
     fft          :     13.43s CPU     13.74s WALL (     240 calls)
     ffts         :      0.29s CPU      0.31s WALL (      21 calls)
     fftw         :    199.27s CPU    205.91s WALL (   26166 calls)
     fftc         :   8909.39s CPU   9363.54s WALL (  489216 calls)
     fftcw        :     37.75s CPU     38.56s WALL (    4704 calls)

     Parallel routines
     fft_scatt_xy :   1154.08s CPU   1158.93s WALL (  493920 calls)
     fft_scatt_yz :   2959.72s CPU   3387.65s WALL (  493920 calls)

     EXX routines
     exx_grid     :      0.00s CPU      0.00s WALL (       1 calls)
     exxinit      :     39.28s CPU     51.43s WALL (       4 calls)
     vexx         :   9542.06s CPU   9964.04s WALL (      32 calls)
     matcalc      :      2.19s CPU      2.19s WALL (     531 calls)
     aceupdate    :      0.10s CPU      0.10s WALL (      32 calls)
     vexxace      :      5.49s CPU      5.51s WALL (     443 calls)
     aceinit      :   9542.35s CPU   9964.33s WALL (      32 calls)

     PWSCF        :      3h 3m CPU      3h11m WALL


   This run was terminated on:  17:17:23  13Nov2022            

=------------------------------------------------------------------------------=
   JOB DONE.
=------------------------------------------------------------------------------=
