
     Program PWSCF v.7.0 starts on 13Nov2022 at 11: 7:14 

     This program is part of the open-source Quantum ESPRESSO suite
     for quantum simulation of materials; please cite
         "P. Giannozzi et al., J. Phys.:Condens. Matter 21 395502 (2009);
         "P. Giannozzi et al., J. Phys.:Condens. Matter 29 465901 (2017);
         "P. Giannozzi et al., J. Chem. Phys. 152 154105 (2020);
          URL http://www.quantum-espresso.org", 
     in publications or presentations arising from this work. More details at
     http://www.quantum-espresso.org/quote

     Parallel version (MPI), running on     6 processors

     MPI processes distributed on     1 nodes
     R & G space division:  proc/nbgrp/npool/nimage =       6
     177810 MiB available memory on the printing compute node when the environment starts

     Reading input from pw.inp

     Current dimensions of program PWSCF are:
     Max number of different atomic species (ntypx) = 10
     Max number of k-points (npk) =  40000
     Max angular momentum in pseudopotentials (lmaxx) =  4
     Message from routine cell_base_init:
     DEPRECATED: use true lattice parameter, not A to a.u. conversion factor

     IMPORTANT: XC functional enforced from input :
     Exchange-correlation= PBE
                           (   1   4   3   4   0   0   0)
     Any further DFT definition will be discarded
     Please, verify this is what you really want


     Subspace diagonalization in iterative solution of the eigenvalue problem:
     one sub-group per band group will be used
     scalapack distributed-memory algorithm (size of sub-group:  2*  2 procs)


     Parallelization info
     --------------------
     sticks:   dense  smooth     PW     G-vecs:    dense   smooth      PW
     Min        1075    1075    287               200753   200753   27459
     Max        1077    1077    288               200757   200757   27466
     Sum        6457    6457   1723              1204529  1204529  164767

     Using Slab Decomposition



     bravais-lattice index     =            0
     lattice parameter (alat)  =       1.0000  a.u.
     unit-cell volume          =    1114.2924 (a.u.)^3
     number of atoms/cell      =            2
     number of atomic types    =            1
     number of electrons       =        28.00
     number of Kohn-Sham states=           21
     kinetic-energy cutoff     =     400.0000  Ry
     charge density cutoff     =    1600.0000  Ry
     scf convergence threshold =      1.0E-06
     mixing beta               =       0.7000
     number of iterations used =            8  plain     mixing
     Exchange-correlation= PBE
                           (   1   4   3   4   0   0   0)

     celldm(1)=   1.000000  celldm(2)=   0.000000  celldm(3)=   0.000000
     celldm(4)=   0.000000  celldm(5)=   0.000000  celldm(6)=   0.000000

     crystal axes: (cart. coord. in units of alat)
               a(1) = (   7.647561   0.000000   0.000000 )  
               a(2) = (  -3.823780   6.622982   0.000000 )  
               a(3) = (   0.000000   0.000000  22.000000 )  

     reciprocal axes: (cart. coord. in units 2 pi/alat)
               b(1) = (  0.130761  0.075495 -0.000000 )  
               b(2) = (  0.000000  0.150989  0.000000 )  
               b(3) = (  0.000000 -0.000000  0.045455 )  


     PseudoPot. # 1 for Ge read from file:
     ./32_Ge_14_2.2_2.3_pbe_n_v1.0.upf
     MD5 check sum: 4e069da32cf3f25d08f765fd27c22043
     Pseudo is Norm-conserving + core correction, Zval = 14.0
     Generated using ONCVPSP code by D. R. Hamann
     Using radial grid of 1558 points,  6 beta functions with: 
                l(1) =   0
                l(2) =   0
                l(3) =   1
                l(4) =   1
                l(5) =   2
                l(6) =   2

     atomic species   valence    mass     pseudopotential
        Ge            14.00    72.63000     Ge( 1.00)

     No symmetry found


                                    s                        frac. trans.

      isym =  1     identity                                     

 cryst.   s( 1) = (     1          0          0      )
                  (     0          1          0      )
                  (     0          0          1      )

 cart.    s( 1) = (  1.0000000  0.0000000  0.0000000 )
                  (  0.0000000  1.0000000  0.0000000 )
                  (  0.0000000  0.0000000  1.0000000 )


   Cartesian axes

     site n.     atom                  positions (alat units)
         1           Ge  tau(   1) = (   0.0000000   0.0000000  15.0121665  )
         2           Ge  tau(   2) = (   3.8237803   2.2076606  13.7116685  )

   Crystallographic axes

     site n.     atom                  positions (cryst. coord.)
         1           Ge  tau(   1) = (  0.0000000  0.0000000  0.6823712  )
         2           Ge  tau(   2) = (  0.6666667  0.3333333  0.6232577  )

     number of k points=     8  Fermi-Dirac smearing, width (Ry)=  0.0020
                       cart. coord. in units 2pi/alat
        k(    1) = (   0.0163451   0.0283105   0.0000000), wk =   0.2500000
        k(    2) = (   0.0163451   0.0660579   0.0000000), wk =   0.2500000
        k(    3) = (   0.0163451  -0.0471842   0.0000000), wk =   0.2500000
        k(    4) = (   0.0163451  -0.0094368   0.0000000), wk =   0.2500000
        k(    5) = (   0.0490352   0.0471842   0.0000000), wk =   0.2500000
        k(    6) = (   0.0490352   0.0849315   0.0000000), wk =   0.2500000
        k(    7) = (   0.0490352  -0.0283105   0.0000000), wk =   0.2500000
        k(    8) = (   0.0490352   0.0094368   0.0000000), wk =   0.2500000

                       cryst. coord.
        k(    1) = (   0.1250000   0.1250000   0.0000000), wk =   0.2500000
        k(    2) = (   0.1250000   0.3750000   0.0000000), wk =   0.2500000
        k(    3) = (   0.1250000  -0.3750000   0.0000000), wk =   0.2500000
        k(    4) = (   0.1250000  -0.1250000   0.0000000), wk =   0.2500000
        k(    5) = (   0.3750000   0.1250000   0.0000000), wk =   0.2500000
        k(    6) = (   0.3750000   0.3750000   0.0000000), wk =   0.2500000
        k(    7) = (   0.3750000  -0.3750000   0.0000000), wk =   0.2500000
        k(    8) = (   0.3750000  -0.1250000   0.0000000), wk =   0.2500000

     Dense  grid:  1204529 G-vectors     FFT dimensions: ( 100, 100, 288)

     Dynamical RAM for                 wfc:       8.04 MB

     Dynamical RAM for     wfc (w. buffer):      72.35 MB

     Dynamical RAM for           str. fact:       3.06 MB

     Dynamical RAM for           local pot:       0.00 MB

     Dynamical RAM for          nlocal pot:      13.78 MB

     Dynamical RAM for                qrad:       3.21 MB

     Dynamical RAM for          rho,v,vnew:      20.18 MB

     Dynamical RAM for               rhoin:       6.73 MB

     Dynamical RAM for            rho*nmix:      49.01 MB

     Dynamical RAM for           G-vectors:      13.02 MB

     Dynamical RAM for          h,s,v(r/c):       0.02 MB

     Dynamical RAM for          <psi|beta>:       0.01 MB

     Dynamical RAM for                 psi:      16.08 MB

     Dynamical RAM for                hpsi:      16.08 MB

     Dynamical RAM for      wfcinit/wfcrot:      16.09 MB

     Estimated static dynamical RAM per process >     156.76 MB

     Estimated max dynamical RAM per process >     237.97 MB

     Estimated total dynamical RAM >       1.39 GB

     Initial potential from superposition of free atoms

     starting charge      27.9984, renormalised to      28.0000

     negative rho (up, down):  6.507E-07 0.000E+00
     Starting wfcs are random

     total cpu time spent up to now is       10.5 secs

     per-process dynamical memory:   186.9 Mb

     Self-consistent Calculation

     iteration #  1     ecut=   400.00 Ry     beta= 0.70
     Davidson diagonalization with overlap

---- Real-time Memory Report at c_bands before calling an iterative solver
           203 MiB given to the printing process from OS
           182 MiB allocation reported by mallinfo(arena+hblkhd)
        176232 MiB available memory on the node where the printing process lives
------------------
     ethr =  1.00E-02,  avg # of iterations = 12.4

     Threshold (ethr) on eigenvalues was too large:
     Diagonalizing with lowered threshold

     Davidson diagonalization with overlap

---- Real-time Memory Report at c_bands before calling an iterative solver
           243 MiB given to the printing process from OS
           212 MiB allocation reported by mallinfo(arena+hblkhd)
        177274 MiB available memory on the node where the printing process lives
------------------
     ethr =  1.64E-04,  avg # of iterations =  5.0

     total cpu time spent up to now is       65.5 secs

     total energy              =    -321.81491111 Ry
     estimated scf accuracy    <       0.03780864 Ry

     iteration #  2     ecut=   400.00 Ry     beta= 0.70
     Davidson diagonalization with overlap

---- Real-time Memory Report at c_bands before calling an iterative solver
           287 MiB given to the printing process from OS
           256 MiB allocation reported by mallinfo(arena+hblkhd)
        176747 MiB available memory on the node where the printing process lives
------------------
     ethr =  1.35E-04,  avg # of iterations =  4.5

     total cpu time spent up to now is       76.9 secs

     total energy              =    -321.81908968 Ry
     estimated scf accuracy    <       0.00146978 Ry

     iteration #  3     ecut=   400.00 Ry     beta= 0.70
     Davidson diagonalization with overlap

---- Real-time Memory Report at c_bands before calling an iterative solver
           293 MiB given to the printing process from OS
           262 MiB allocation reported by mallinfo(arena+hblkhd)
        178391 MiB available memory on the node where the printing process lives
------------------
     ethr =  5.25E-06,  avg # of iterations =  4.4

     total cpu time spent up to now is       90.5 secs

     total energy              =    -321.81948185 Ry
     estimated scf accuracy    <       0.00032639 Ry

     iteration #  4     ecut=   400.00 Ry     beta= 0.70
     Davidson diagonalization with overlap

---- Real-time Memory Report at c_bands before calling an iterative solver
           299 MiB given to the printing process from OS
           268 MiB allocation reported by mallinfo(arena+hblkhd)
        178356 MiB available memory on the node where the printing process lives
------------------
     ethr =  1.17E-06,  avg # of iterations =  2.0

     total cpu time spent up to now is      102.0 secs

     total energy              =    -321.81954400 Ry
     estimated scf accuracy    <       0.00002070 Ry

     iteration #  5     ecut=   400.00 Ry     beta= 0.70
     Davidson diagonalization with overlap

---- Real-time Memory Report at c_bands before calling an iterative solver
           305 MiB given to the printing process from OS
           274 MiB allocation reported by mallinfo(arena+hblkhd)
        178322 MiB available memory on the node where the printing process lives
------------------
     ethr =  7.39E-08,  avg # of iterations =  2.0

     total cpu time spent up to now is      112.9 secs

     total energy              =    -321.81954560 Ry
     estimated scf accuracy    <       0.00000324 Ry

     iteration #  6     ecut=   400.00 Ry     beta= 0.70
     Davidson diagonalization with overlap

---- Real-time Memory Report at c_bands before calling an iterative solver
           311 MiB given to the printing process from OS
           280 MiB allocation reported by mallinfo(arena+hblkhd)
        178280 MiB available memory on the node where the printing process lives
------------------
     ethr =  1.16E-08,  avg # of iterations =  2.0

     total cpu time spent up to now is      124.2 secs

     total energy              =    -321.81954614 Ry
     estimated scf accuracy    <       0.00000450 Ry

     iteration #  7     ecut=   400.00 Ry     beta= 0.70
     Davidson diagonalization with overlap

---- Real-time Memory Report at c_bands before calling an iterative solver
           317 MiB given to the printing process from OS
           287 MiB allocation reported by mallinfo(arena+hblkhd)
        178242 MiB available memory on the node where the printing process lives
------------------
     ethr =  1.16E-08,  avg # of iterations =  1.9

     total cpu time spent up to now is      134.1 secs

     End of self-consistent calculation

          k = 0.0163 0.0283 0.0000 (150527 PWs)   bands (ev):

   -25.0250 -25.0122 -24.9553 -24.9450 -24.9023 -24.8588 -24.8151 -24.7864
   -24.7325 -24.7112 -11.1541  -4.9009  -2.5123  -1.9051   1.9068   2.3142
     3.1514   4.4213   4.9602   5.3723   6.0140

     occupation numbers 
     1.0000   1.0000   1.0000   1.0000   1.0000   1.0000   1.0000   1.0000
     1.0000   1.0000   1.0000   1.0000   1.0000   1.0000   0.0000   0.0000
     0.0000   0.0000   0.0000   0.0000   0.0000

          k = 0.0163 0.0661 0.0000 (150516 PWs)   bands (ev):

   -25.0413 -25.0026 -24.9904 -24.9237 -24.8907 -24.8393 -24.8235 -24.7981
   -24.7448 -24.6817  -9.7033  -7.6039  -3.1028  -1.4396   0.4143   2.2774
     4.7423   5.2971   6.4889   6.9622   7.0455

     occupation numbers 
     1.0000   1.0000   1.0000   1.0000   1.0000   1.0000   1.0000   1.0000
     1.0000   1.0000   1.0000   1.0000   1.0000   1.0000   0.0000   0.0000
     0.0000   0.0000   0.0000   0.0000   0.0000

          k = 0.0163-0.0472 0.0000 (150538 PWs)   bands (ev):

   -25.0339 -25.0174 -24.9762 -24.9175 -24.8971 -24.8450 -24.8201 -24.7998
   -24.7380 -24.6943 -10.5092  -6.3132  -2.6837  -2.1065   1.3028   2.4463
     4.0788   5.0006   5.4607   6.0046   6.4618

     occupation numbers 
     1.0000   1.0000   1.0000   1.0000   1.0000   1.0000   1.0000   1.0000
     1.0000   1.0000   1.0000   1.0000   1.0000   1.0000   0.0000   0.0000
     0.0000   0.0000   0.0000   0.0000   0.0000

          k = 0.0163-0.0094 0.0000 (150542 PWs)   bands (ev):

   -25.0163 -25.0114 -24.9627 -24.9269 -24.9248 -24.8650 -24.7968 -24.7761
   -24.7372 -24.7300 -11.4882  -4.1460  -2.2006  -1.1908   1.3538   1.9298
     3.3573   4.0457   4.3256   4.6223   6.2281

     occupation numbers 
     1.0000   1.0000   1.0000   1.0000   1.0000   1.0000   1.0000   1.0000
     1.0000   1.0000   1.0000   1.0000   1.0000   1.0000   0.0000   0.0000
     0.0000   0.0000   0.0000   0.0000   0.0000

          k = 0.0490 0.0472 0.0000 (150516 PWs)   bands (ev):

   -25.0413 -25.0026 -24.9904 -24.9237 -24.8907 -24.8393 -24.8235 -24.7981
   -24.7448 -24.6817  -9.7033  -7.6039  -3.1028  -1.4396   0.4143   2.2774
     4.7423   5.2971   6.4889   6.9622   7.0454

     occupation numbers 
     1.0000   1.0000   1.0000   1.0000   1.0000   1.0000   1.0000   1.0000
     1.0000   1.0000   1.0000   1.0000   1.0000   1.0000   0.0000   0.0000
     0.0000   0.0000   0.0000   0.0000   0.0000

          k = 0.0490 0.0849 0.0000 (150522 PWs)   bands (ev):

   -25.0531 -25.0087 -24.9903 -24.8975 -24.8789 -24.8431 -24.8248 -24.7861
   -24.7845 -24.6676  -9.0668  -8.2238  -3.9445  -0.8161  -0.0573   4.1389
     4.4022   5.8411   6.3033   6.8066   7.3806

     occupation numbers 
     1.0000   1.0000   1.0000   1.0000   1.0000   1.0000   1.0000   1.0000
     1.0000   1.0000   1.0000   1.0000   1.0000   1.0000   0.0000   0.0000
     0.0000   0.0000   0.0000   0.0000   0.0000

          k = 0.0490-0.0283 0.0000 (150514 PWs)   bands (ev):

   -25.0282 -25.0271 -24.9832 -24.9159 -24.8983 -24.8321 -24.8098 -24.8061
   -24.7363 -24.7007 -10.2213  -6.9327  -2.2267  -1.9921   0.6978   1.4979
     4.3436   5.8382   6.2886   6.3806   7.1891

     occupation numbers 
     1.0000   1.0000   1.0000   1.0000   1.0000   1.0000   1.0000   1.0000
     1.0000   1.0000   1.0000   1.0000   1.0000   1.0000   0.0000   0.0000
     0.0000   0.0000   0.0000   0.0000   0.0000

          k = 0.0490 0.0094 0.0000 (150538 PWs)   bands (ev):

   -25.0339 -25.0174 -24.9762 -24.9175 -24.8971 -24.8450 -24.8201 -24.7998
   -24.7380 -24.6943 -10.5092  -6.3132  -2.6837  -2.1065   1.3028   2.4463
     4.0788   5.0006   5.4607   6.0046   6.4618

     occupation numbers 
     1.0000   1.0000   1.0000   1.0000   1.0000   1.0000   1.0000   1.0000
     1.0000   1.0000   1.0000   1.0000   1.0000   1.0000   0.0000   0.0000
     0.0000   0.0000   0.0000   0.0000   0.0000

     the Fermi energy is    -0.4367 ev

!    total energy              =    -321.81954679 Ry
     estimated scf accuracy    <       0.00000005 Ry
     smearing contrib. (-TS)   =      -0.00000001 Ry
     internal energy E=F+TS    =    -321.81954678 Ry

     The total energy is F=E-TS. E is the sum of the following terms:
     one-electron contribution =    -610.92343722 Ry
     hartree contribution      =     311.38215602 Ry
     xc contribution           =     -71.18449356 Ry
     ewald contribution        =      48.90622797 Ry

     convergence has been achieved in   7 iterations

     Forces acting on atoms (cartesian axes, Ry/au):

     atom    1 type  1   force =     0.00840301   -0.00484682   -0.00166457
     atom    2 type  1   force =    -0.00840301    0.00484682    0.00166457
     The non-local contrib.  to forces
     atom    1 type  1   force =     0.01412921   -0.00815449   -0.31615225
     atom    2 type  1   force =    -0.01416013    0.00817477    0.31801595
     The ionic contribution  to forces
     atom    1 type  1   force =    -0.00000003    0.00000003   18.42928954
     atom    2 type  1   force =     0.00000003   -0.00000003  -18.42928954
     The local contribution  to forces
     atom    1 type  1   force =    -0.00499104    0.00288164  -18.12082329
     atom    2 type  1   force =     0.00507146   -0.00293754   18.12019206
     The core correction contribution to forces
     atom    1 type  1   force =    -0.00103410    0.00059719    0.00714209
     atom    2 type  1   force =     0.00103719   -0.00059926   -0.00716655
     The Hubbard contrib.    to forces
     atom    1 type  1   force =     0.00000000    0.00000000    0.00000000
     atom    2 type  1   force =     0.00000000    0.00000000    0.00000000
     The SCF correction term to forces
     atom    1 type  1   force =     0.00029606   -0.00016885   -0.00022981
     atom    2 type  1   force =    -0.00035446    0.00021121    0.00080351

     Total force =     0.013919     Total SCF correction =     0.000992


     Computing stress (Cartesian axis) and pressure

          total   stress  (Ry/bohr**3)                   (kbar)     P=       -0.79
  -0.00000928   0.00000519   0.00000977           -1.37        0.76        1.44
   0.00000519  -0.00000330  -0.00000565            0.76       -0.48       -0.83
   0.00000977  -0.00000565  -0.00000345            1.44       -0.83       -0.51

     kinetic stress (kbar)  17563.56      5.59      3.52
                                5.59  17570.02     -2.03
                                3.52     -2.03  17607.36

     local   stress (kbar) -67427.85    -17.82     -7.72
                              -17.82 -67448.43      4.46
                               -7.72      4.46  62405.08

     nonloc. stress (kbar)  -6921.72      4.63      1.95
                                4.63  -6916.38     -1.12
                                1.95     -1.12  -6953.10

     hartree stress (kbar)  34190.98      8.17      3.54
                                8.17  34200.42     -2.04
                                3.54     -2.04 -27283.79

     exc-cor stress (kbar)   2489.31      0.20      0.13
                                0.20   2489.55     -0.08
                                0.13     -0.08   2479.38

     corecor stress (kbar)  -4834.13     -0.01      0.02
                               -0.01  -4834.14     -0.01
                                0.02     -0.01  -4834.89

     ewald   stress (kbar)  24938.49      0.00     -0.00
                                0.00  24938.49      0.00
                               -0.00      0.00 -43420.54

     hubbard stress (kbar)      0.00      0.00      0.00
                                0.00      0.00      0.00
                                0.00      0.00      0.00

     DFT-D   stress (kbar)      0.00      0.00      0.00
                                0.00      0.00      0.00
                                0.00      0.00      0.00

     XDM     stress (kbar)      0.00      0.00      0.00
                                0.00      0.00      0.00
                                0.00      0.00      0.00

     dft-nl  stress (kbar)      0.00      0.00      0.00
                                0.00      0.00      0.00
                                0.00      0.00      0.00

     TS-vdW  stress (kbar)      0.00      0.00      0.00
                                0.00      0.00      0.00
                                0.00      0.00      0.00


                                0.00      0.00      0.00
                                0.00      0.00      0.00


                                0.00      0.00      0.00


     Writing all to output data dir ./calc.save/

     init_run     :     10.27s CPU     10.44s WALL (       1 calls)
     electrons    :    120.79s CPU    123.72s WALL (       1 calls)
     forces       :      4.60s CPU      4.63s WALL (       1 calls)
     stress       :     13.89s CPU     13.94s WALL (       1 calls)

     Called by init_run:
     wfcinit      :      3.72s CPU      3.82s WALL (       1 calls)
     wfcinit:wfcr :      3.19s CPU      3.29s WALL (       8 calls)
     potinit      :      2.21s CPU      2.24s WALL (       1 calls)
     hinit0       :      3.93s CPU      3.94s WALL (       1 calls)

     Called by electrons:
     c_bands      :    103.53s CPU    105.96s WALL (       8 calls)
     sum_band     :     13.95s CPU     14.24s WALL (       8 calls)
     v_of_rho     :      3.30s CPU      3.40s WALL (       8 calls)
     v_h          :      0.16s CPU      0.17s WALL (       8 calls)
     v_xc         :      3.92s CPU      4.03s WALL (      10 calls)
     mix_rho      :      0.31s CPU      0.33s WALL (       8 calls)

     Called by c_bands:
     init_us_2    :      1.62s CPU      1.63s WALL (     152 calls)
     init_us_2:cp :      1.62s CPU      1.63s WALL (     152 calls)
     cegterg      :     99.48s CPU    101.89s WALL (      64 calls)

     Called by sum_band:
     sum_band:wei :      0.00s CPU      0.00s WALL (       8 calls)
     sum_band:loo :     13.67s CPU     13.95s WALL (       8 calls)
     sum_band:buf :      0.11s CPU      0.11s WALL (      64 calls)
     sum_band:ini :      0.68s CPU      0.68s WALL (      64 calls)

     Called by *egterg:
     cdiaghg      :      0.29s CPU      0.31s WALL (     329 calls)
     cegterg:over :      3.21s CPU      3.23s WALL (     273 calls)
     cegterg:upda :      2.93s CPU      2.94s WALL (     273 calls)
     cegterg:last :      3.53s CPU      3.55s WALL (     202 calls)
     cdiaghg:chol :      0.03s CPU      0.03s WALL (     329 calls)
     cdiaghg:inve :      0.01s CPU      0.01s WALL (     329 calls)
     cdiaghg:para :      0.03s CPU      0.03s WALL (     658 calls)
     h_psi        :     90.79s CPU     93.24s WALL (     345 calls)
     g_psi        :      0.64s CPU      0.64s WALL (     273 calls)

     Called by h_psi:
     h_psi:calbec :      1.86s CPU      1.87s WALL (     345 calls)
     vloc_psi     :     86.78s CPU     89.21s WALL (     345 calls)
     add_vuspsi   :      1.73s CPU      1.74s WALL (     345 calls)

     General routines
     calbec       :      2.17s CPU      2.19s WALL (     385 calls)
     fft          :      3.30s CPU      3.41s WALL (     105 calls)
     ffts         :      0.11s CPU      0.12s WALL (       8 calls)
     fftw         :     85.15s CPU     87.77s WALL (   11338 calls)

     Parallel routines

     PWSCF        :   2m29.77s CPU   2m33.81s WALL


   This run was terminated on:  11: 9:47  13Nov2022            

=------------------------------------------------------------------------------=
   JOB DONE.
=------------------------------------------------------------------------------=
