
     Program PWSCF v.7.0 starts on 28Oct2022 at 16:36:38 

     This program is part of the open-source Quantum ESPRESSO suite
     for quantum simulation of materials; please cite
         "P. Giannozzi et al., J. Phys.:Condens. Matter 21 395502 (2009);
         "P. Giannozzi et al., J. Phys.:Condens. Matter 29 465901 (2017);
         "P. Giannozzi et al., J. Chem. Phys. 152 154105 (2020);
          URL http://www.quantum-espresso.org", 
     in publications or presentations arising from this work. More details at
     http://www.quantum-espresso.org/quote

     Parallel version (MPI), running on    12 processors

     MPI processes distributed on     1 nodes
     R & G space division:  proc/nbgrp/npool/nimage =      12
     177672 MiB available memory on the printing compute node when the environment starts

     Reading input from pw.inp

     Current dimensions of program PWSCF are:
     Max number of different atomic species (ntypx) = 10
     Max number of k-points (npk) =  40000
     Max angular momentum in pseudopotentials (lmaxx) =  4
     Message from routine cell_base_init:
     DEPRECATED: use true lattice parameter, not A to a.u. conversion factor

     IMPORTANT: XC functional enforced from input :
     Exchange-correlation= HSE
                           (   1   4  12   4   0   0   0)
     EXX-fraction              =        0.25
     Any further DFT definition will be discarded
     Please, verify this is what you really want

     Message from routine setup :
     BEWARE: nonlinear core correction is not consistent with hybrid XC
     EXX: q-point mesh:     4    4    1
     EXX: setup a grid of 16 q-points centered on each k-point
     (k+q)-points:
   0.0163451   0.0283105   0.0000000         1    1
   0.0163451   0.0660579   0.0000000         2    1
   0.0163451  -0.0471842   0.0000000         3    1
   0.0163451  -0.0094368   0.0000000         4    1
   0.0490352   0.0471842   0.0000000         5    1
   0.0490352   0.0849315   0.0000000         6    1
   0.0490352  -0.0283105   0.0000000         7    1
   0.0490352   0.0094368   0.0000000         8    1
  -0.0490352  -0.0094368   0.0000000         8   -1
  -0.0490352   0.0283105   0.0000000         7   -1
  -0.0490352  -0.0849315   0.0000000         6   -1
  -0.0490352  -0.0471842   0.0000000         5   -1
  -0.0163451   0.0094368   0.0000000         4   -1
  -0.0163451   0.0471842   0.0000000         3   -1
  -0.0163451  -0.0660579   0.0000000         2   -1
  -0.0163451  -0.0283105   0.0000000         1   -1

     Subspace diagonalization in iterative solution of the eigenvalue problem:
     one sub-group per band group will be used
     scalapack distributed-memory algorithm (size of sub-group:  3*  3 procs)


     Parallelization info
     --------------------
     sticks:   dense  smooth     PW     G-vecs:    dense   smooth      PW
     Min         268     268     72                35500    35500    5022
     Max         269     269     73                35515    35515    5029
     Sum        3217    3217    871               426043   426043   60325

     Using Slab Decomposition



     bravais-lattice index     =            0
     lattice parameter (alat)  =       1.0000  a.u.
     unit-cell volume          =    1114.2924 (a.u.)^3
     number of atoms/cell      =            2
     number of atomic types    =            1
     number of electrons       =        28.00
     number of Kohn-Sham states=           22
     kinetic-energy cutoff     =     200.0000  Ry
     charge density cutoff     =     800.0000  Ry
     cutoff for Fock operator  =     800.0000  Ry
     scf convergence threshold =      1.0E-06
     mixing beta               =       0.7000
     number of iterations used =            8  plain     mixing
     Exchange-correlation= HSE
                           (   1   4  12   4   0   0   0)
     EXX-fraction              =        0.25

     celldm(1)=   1.000000  celldm(2)=   0.000000  celldm(3)=   0.000000
     celldm(4)=   0.000000  celldm(5)=   0.000000  celldm(6)=   0.000000

     crystal axes: (cart. coord. in units of alat)
               a(1) = (   7.647561   0.000000   0.000000 )  
               a(2) = (  -3.823780   6.622982   0.000000 )  
               a(3) = (   0.000000   0.000000  22.000000 )  

     reciprocal axes: (cart. coord. in units 2 pi/alat)
               b(1) = (  0.130761  0.075495 -0.000000 )  
               b(2) = (  0.000000  0.150989  0.000000 )  
               b(3) = (  0.000000 -0.000000  0.045455 )  


     PseudoPot. # 1 for Ge read from file:
     ./32_Ge_14_2.2_2.3_pbe_n_v1.0.upf
     MD5 check sum: 4e069da32cf3f25d08f765fd27c22043
     Pseudo is Norm-conserving + core correction, Zval = 14.0
     Generated using ONCVPSP code by D. R. Hamann
     Using radial grid of 1558 points,  6 beta functions with: 
                l(1) =   0
                l(2) =   0
                l(3) =   1
                l(4) =   1
                l(5) =   2
                l(6) =   2

     atomic species   valence    mass     pseudopotential
        Ge            14.00    72.63000     Ge( 1.00)

     No symmetry found


                                    s                        frac. trans.

      isym =  1     identity                                     

 cryst.   s( 1) = (     1          0          0      )
                  (     0          1          0      )
                  (     0          0          1      )

 cart.    s( 1) = (  1.0000000  0.0000000  0.0000000 )
                  (  0.0000000  1.0000000  0.0000000 )
                  (  0.0000000  0.0000000  1.0000000 )


   Cartesian axes

     site n.     atom                  positions (alat units)
         1           Ge  tau(   1) = (   0.0000000   0.0000000  15.0121665  )
         2           Ge  tau(   2) = (   3.8237803   2.2076606  13.7116685  )

   Crystallographic axes

     site n.     atom                  positions (cryst. coord.)
         1           Ge  tau(   1) = (  0.0000000  0.0000000  0.6823712  )
         2           Ge  tau(   2) = (  0.6666667  0.3333333  0.6232577  )

     number of k points=     8  Fermi-Dirac smearing, width (Ry)=  0.0020
                       cart. coord. in units 2pi/alat
        k(    1) = (   0.0163451   0.0283105   0.0000000), wk =   0.2500000
        k(    2) = (   0.0163451   0.0660579   0.0000000), wk =   0.2500000
        k(    3) = (   0.0163451  -0.0471842   0.0000000), wk =   0.2500000
        k(    4) = (   0.0163451  -0.0094368   0.0000000), wk =   0.2500000
        k(    5) = (   0.0490352   0.0471842   0.0000000), wk =   0.2500000
        k(    6) = (   0.0490352   0.0849315   0.0000000), wk =   0.2500000
        k(    7) = (   0.0490352  -0.0283105   0.0000000), wk =   0.2500000
        k(    8) = (   0.0490352   0.0094368   0.0000000), wk =   0.2500000

                       cryst. coord.
        k(    1) = (   0.1250000   0.1250000   0.0000000), wk =   0.2500000
        k(    2) = (   0.1250000   0.3750000   0.0000000), wk =   0.2500000
        k(    3) = (   0.1250000  -0.3750000   0.0000000), wk =   0.2500000
        k(    4) = (   0.1250000  -0.1250000   0.0000000), wk =   0.2500000
        k(    5) = (   0.3750000   0.1250000   0.0000000), wk =   0.2500000
        k(    6) = (   0.3750000   0.3750000   0.0000000), wk =   0.2500000
        k(    7) = (   0.3750000  -0.3750000   0.0000000), wk =   0.2500000
        k(    8) = (   0.3750000  -0.1250000   0.0000000), wk =   0.2500000

     Dense  grid:   426043 G-vectors     FFT dimensions: (  72,  72, 200)

     Dynamical RAM for                 wfc:       1.49 MB

     Dynamical RAM for     wfc (w. buffer):      13.40 MB

     Dynamical RAM for                 EXX:     421.21 MB

     Dynamical RAM for           str. fact:       0.54 MB

     Dynamical RAM for           local pot:       0.00 MB

     Dynamical RAM for          nlocal pot:       2.44 MB

     Dynamical RAM for                qrad:       2.37 MB

     Dynamical RAM for          rho,v,vnew:       3.64 MB

     Dynamical RAM for               rhoin:       1.21 MB

     Dynamical RAM for            rho*nmix:       8.67 MB

     Dynamical RAM for           G-vectors:       2.30 MB

     Dynamical RAM for          h,s,v(r/c):       0.01 MB

     Dynamical RAM for          <psi|beta>:       0.01 MB

     Dynamical RAM for                 psi:       2.98 MB

     Dynamical RAM for                hpsi:       2.98 MB

     Dynamical RAM for      wfcinit/wfcrot:       2.99 MB

     Estimated static dynamical RAM per process >     451.56 MB

     Estimated max dynamical RAM per process >     466.21 MB

     Estimated total dynamical RAM >       5.46 GB

     Initial potential from superposition of free atoms

     starting charge      27.9984, renormalised to      28.0000

     negative rho (up, down):  8.350E-07 0.000E+00
     Starting wfcs are random

     total cpu time spent up to now is        2.9 secs

     per-process dynamical memory:    46.8 Mb

     Self-consistent Calculation

     iteration #  1     ecut=   200.00 Ry     beta= 0.70
     Davidson diagonalization with overlap

---- Real-time Memory Report at c_bands before calling an iterative solver
            90 MiB given to the printing process from OS
            45 MiB allocation reported by mallinfo(arena+hblkhd)
        177162 MiB available memory on the node where the printing process lives
------------------
     ethr =  1.00E-02,  avg # of iterations = 12.4

     Threshold (ethr) on eigenvalues was too large:
     Diagonalizing with lowered threshold

     Davidson diagonalization with overlap

---- Real-time Memory Report at c_bands before calling an iterative solver
           105 MiB given to the printing process from OS
            51 MiB allocation reported by mallinfo(arena+hblkhd)
        177095 MiB available memory on the node where the printing process lives
------------------
     ethr =  1.73E-04,  avg # of iterations =  4.4

     total cpu time spent up to now is       12.1 secs

     total energy              =    -321.81489645 Ry
     estimated scf accuracy    <       0.03778445 Ry

     iteration #  2     ecut=   200.00 Ry     beta= 0.70
     Davidson diagonalization with overlap

---- Real-time Memory Report at c_bands before calling an iterative solver
           113 MiB given to the printing process from OS
            59 MiB allocation reported by mallinfo(arena+hblkhd)
        177005 MiB available memory on the node where the printing process lives
------------------
     ethr =  1.35E-04,  avg # of iterations =  3.8

     total cpu time spent up to now is       14.0 secs

     total energy              =    -321.81908295 Ry
     estimated scf accuracy    <       0.00147343 Ry

     iteration #  3     ecut=   200.00 Ry     beta= 0.70
     Davidson diagonalization with overlap

---- Real-time Memory Report at c_bands before calling an iterative solver
           115 MiB given to the printing process from OS
            60 MiB allocation reported by mallinfo(arena+hblkhd)
        176993 MiB available memory on the node where the printing process lives
------------------
     ethr =  5.26E-06,  avg # of iterations =  5.6

     total cpu time spent up to now is       16.3 secs

     total energy              =    -321.81947692 Ry
     estimated scf accuracy    <       0.00032938 Ry

     iteration #  4     ecut=   200.00 Ry     beta= 0.70
     Davidson diagonalization with overlap

---- Real-time Memory Report at c_bands before calling an iterative solver
           116 MiB given to the printing process from OS
            61 MiB allocation reported by mallinfo(arena+hblkhd)
        176979 MiB available memory on the node where the printing process lives
------------------
     ethr =  1.18E-06,  avg # of iterations =  2.4

     total cpu time spent up to now is       18.3 secs

     total energy              =    -321.81953900 Ry
     estimated scf accuracy    <       0.00002185 Ry

     iteration #  5     ecut=   200.00 Ry     beta= 0.70
     Davidson diagonalization with overlap

---- Real-time Memory Report at c_bands before calling an iterative solver
           117 MiB given to the printing process from OS
            62 MiB allocation reported by mallinfo(arena+hblkhd)
        176966 MiB available memory on the node where the printing process lives
------------------
     ethr =  7.80E-08,  avg # of iterations =  2.0

     total cpu time spent up to now is       20.1 secs

     total energy              =    -321.81953861 Ry
     estimated scf accuracy    <       0.00001374 Ry

     iteration #  6     ecut=   200.00 Ry     beta= 0.70
     Davidson diagonalization with overlap

---- Real-time Memory Report at c_bands before calling an iterative solver
           118 MiB given to the printing process from OS
            63 MiB allocation reported by mallinfo(arena+hblkhd)
        176954 MiB available memory on the node where the printing process lives
------------------
     ethr =  4.91E-08,  avg # of iterations =  2.0

     total cpu time spent up to now is       21.8 secs

     total energy              =    -321.81954183 Ry
     estimated scf accuracy    <       0.00000526 Ry

     iteration #  7     ecut=   200.00 Ry     beta= 0.70
     Davidson diagonalization with overlap

---- Real-time Memory Report at c_bands before calling an iterative solver
           120 MiB given to the printing process from OS
            64 MiB allocation reported by mallinfo(arena+hblkhd)
        176942 MiB available memory on the node where the printing process lives
------------------
     ethr =  1.88E-08,  avg # of iterations =  1.2

     total cpu time spent up to now is       23.4 secs

     End of self-consistent calculation

          k = 0.0163 0.0283 0.0000 ( 53181 PWs)   bands (ev):

   -25.0251 -25.0123 -24.9554 -24.9451 -24.9024 -24.8589 -24.8152 -24.7865
   -24.7326 -24.7113 -11.1541  -4.9009  -2.5123  -1.9051   1.9068   2.3142
     3.1514   4.4213   4.9602   5.3722   6.0140   7.9554

     occupation numbers 
     1.0000   1.0000   1.0000   1.0000   1.0000   1.0000   1.0000   1.0000
     1.0000   1.0000   1.0000   1.0000   1.0000   1.0000   0.0000   0.0000
     0.0000   0.0000   0.0000   0.0000   0.0000   0.0000

          k = 0.0163 0.0661 0.0000 ( 53230 PWs)   bands (ev):

   -25.0414 -25.0027 -24.9905 -24.9238 -24.8908 -24.8395 -24.8237 -24.7982
   -24.7449 -24.6818  -9.7033  -7.6039  -3.1028  -1.4396   0.4143   2.2774
     4.7423   5.2971   6.4889   6.9622   7.0453   7.6702

     occupation numbers 
     1.0000   1.0000   1.0000   1.0000   1.0000   1.0000   1.0000   1.0000
     1.0000   1.0000   1.0000   1.0000   1.0000   1.0000   0.0000   0.0000
     0.0000   0.0000   0.0000   0.0000   0.0000   0.0000

          k = 0.0163-0.0472 0.0000 ( 53237 PWs)   bands (ev):

   -25.0340 -25.0175 -24.9763 -24.9176 -24.8972 -24.8451 -24.8202 -24.7999
   -24.7381 -24.6944 -10.5093  -6.3132  -2.6837  -2.1065   1.3028   2.4462
     4.0788   5.0006   5.4607   6.0046   6.4617   8.0982

     occupation numbers 
     1.0000   1.0000   1.0000   1.0000   1.0000   1.0000   1.0000   1.0000
     1.0000   1.0000   1.0000   1.0000   1.0000   1.0000   0.0000   0.0000
     0.0000   0.0000   0.0000   0.0000   0.0000   0.0000

          k = 0.0163-0.0094 0.0000 ( 53244 PWs)   bands (ev):

   -25.0164 -25.0115 -24.9628 -24.9270 -24.9249 -24.8651 -24.7969 -24.7762
   -24.7373 -24.7301 -11.4882  -4.1460  -2.2006  -1.1908   1.3538   1.9298
     3.3572   4.0457   4.3256   4.6223   6.2281   8.4820

     occupation numbers 
     1.0000   1.0000   1.0000   1.0000   1.0000   1.0000   1.0000   1.0000
     1.0000   1.0000   1.0000   1.0000   1.0000   1.0000   0.0000   0.0000
     0.0000   0.0000   0.0000   0.0000   0.0000   0.0000

          k = 0.0490 0.0472 0.0000 ( 53230 PWs)   bands (ev):

   -25.0414 -25.0027 -24.9905 -24.9238 -24.8908 -24.8395 -24.8237 -24.7982
   -24.7449 -24.6818  -9.7033  -7.6039  -3.1028  -1.4396   0.4143   2.2774
     4.7423   5.2971   6.4889   6.9622   7.0454   7.6702

     occupation numbers 
     1.0000   1.0000   1.0000   1.0000   1.0000   1.0000   1.0000   1.0000
     1.0000   1.0000   1.0000   1.0000   1.0000   1.0000   0.0000   0.0000
     0.0000   0.0000   0.0000   0.0000   0.0000   0.0000

          k = 0.0490 0.0849 0.0000 ( 53227 PWs)   bands (ev):

   -25.0532 -25.0088 -24.9904 -24.8976 -24.8790 -24.8432 -24.8249 -24.7862
   -24.7846 -24.6678  -9.0668  -8.2238  -3.9445  -0.8161  -0.0573   4.1389
     4.4022   5.8411   6.3033   6.8066   7.3801   7.8493

     occupation numbers 
     1.0000   1.0000   1.0000   1.0000   1.0000   1.0000   1.0000   1.0000
     1.0000   1.0000   1.0000   1.0000   1.0000   1.0000   0.0000   0.0000
     0.0000   0.0000   0.0000   0.0000   0.0000   0.0000

          k = 0.0490-0.0283 0.0000 ( 53270 PWs)   bands (ev):

   -25.0283 -25.0272 -24.9833 -24.9160 -24.8984 -24.8322 -24.8099 -24.8062
   -24.7365 -24.7008 -10.2213  -6.9327  -2.2267  -1.9921   0.6978   1.4978
     4.3436   5.8382   6.2886   6.3806   7.1890   7.5816

     occupation numbers 
     1.0000   1.0000   1.0000   1.0000   1.0000   1.0000   1.0000   1.0000
     1.0000   1.0000   1.0000   1.0000   1.0000   1.0000   0.0000   0.0000
     0.0000   0.0000   0.0000   0.0000   0.0000   0.0000

          k = 0.0490 0.0094 0.0000 ( 53237 PWs)   bands (ev):

   -25.0340 -25.0175 -24.9763 -24.9176 -24.8972 -24.8451 -24.8202 -24.7999
   -24.7381 -24.6944 -10.5093  -6.3132  -2.6837  -2.1065   1.3028   2.4463
     4.0788   5.0006   5.4607   6.0046   6.4617   8.0983

     occupation numbers 
     1.0000   1.0000   1.0000   1.0000   1.0000   1.0000   1.0000   1.0000
     1.0000   1.0000   1.0000   1.0000   1.0000   1.0000   0.0000   0.0000
     0.0000   0.0000   0.0000   0.0000   0.0000   0.0000

     the Fermi energy is    -0.4367 ev

!    total energy              =    -321.81954258 Ry
     estimated scf accuracy    <       0.00000004 Ry
     smearing contrib. (-TS)   =      -0.00000001 Ry
     internal energy E=F+TS    =    -321.81954257 Ry

     convergence has been achieved in   7 iterations

     Using ACE for calculation of exact exchange

     EXX grid:   426043 G-vectors     FFT dimensions: (  72,  72, 200)

     EXX: now go back to refine exchange calculation

     total cpu time spent up to now is      412.8 secs

     per-process dynamical memory:   668.2 Mb

     Self-consistent Calculation

     iteration #  1     ecut=   200.00 Ry     beta= 0.70
     Davidson diagonalization with overlap

---- Real-time Memory Report at c_bands before calling an iterative solver
           708 MiB given to the printing process from OS
           652 MiB allocation reported by mallinfo(arena+hblkhd)
        169862 MiB available memory on the node where the printing process lives
------------------
     ethr =  1.88E-08,  avg # of iterations =  9.1

     total cpu time spent up to now is      417.6 secs

     total energy              =    -312.34417632 Ry
     estimated scf accuracy    <       0.01609898 Ry

     iteration #  2     ecut=   200.00 Ry     beta= 0.70
     Davidson diagonalization with overlap

---- Real-time Memory Report at c_bands before calling an iterative solver
           708 MiB given to the printing process from OS
           652 MiB allocation reported by mallinfo(arena+hblkhd)
        169863 MiB available memory on the node where the printing process lives
------------------
     ethr =  5.75E-05,  avg # of iterations =  2.0

     total cpu time spent up to now is      419.6 secs

     total energy              =    -312.34767076 Ry
     estimated scf accuracy    <       0.00031167 Ry

     iteration #  3     ecut=   200.00 Ry     beta= 0.70
     Davidson diagonalization with overlap

---- Real-time Memory Report at c_bands before calling an iterative solver
           708 MiB given to the printing process from OS
           652 MiB allocation reported by mallinfo(arena+hblkhd)
        169863 MiB available memory on the node where the printing process lives
------------------
     ethr =  1.11E-06,  avg # of iterations =  2.0

     total cpu time spent up to now is      421.8 secs

     total energy              =    -312.34772062 Ry
     estimated scf accuracy    <       0.00001270 Ry

     iteration #  4     ecut=   200.00 Ry     beta= 0.70
     Davidson diagonalization with overlap

---- Real-time Memory Report at c_bands before calling an iterative solver
           708 MiB given to the printing process from OS
           652 MiB allocation reported by mallinfo(arena+hblkhd)
        169859 MiB available memory on the node where the printing process lives
------------------
     ethr =  4.54E-08,  avg # of iterations =  2.0

     total cpu time spent up to now is      424.0 secs

     total energy              =    -312.34772398 Ry
     estimated scf accuracy    <       0.00000210 Ry

     iteration #  5     ecut=   200.00 Ry     beta= 0.70
     Davidson diagonalization with overlap

---- Real-time Memory Report at c_bands before calling an iterative solver
           708 MiB given to the printing process from OS
           652 MiB allocation reported by mallinfo(arena+hblkhd)
        169859 MiB available memory on the node where the printing process lives
------------------
     ethr =  7.51E-09,  avg # of iterations =  2.0

     total cpu time spent up to now is      426.0 secs

     End of self-consistent calculation

          k = 0.0163 0.0283 0.0000 ( 53181 PWs)   bands (ev):

   -25.8783 -25.8653 -25.7872 -25.7672 -25.7222 -25.6535 -25.5970 -25.5699
   -25.5034 -25.4761 -12.7202  -5.7119  -3.1364  -2.5305   2.0824   2.5079
     3.4035   4.6112   5.0972   5.7945   6.2826   8.5057

     occupation numbers 
     1.0000   1.0000   1.0000   1.0000   1.0000   1.0000   1.0000   1.0000
     1.0000   1.0000   1.0000   1.0000   1.0000   1.0000   0.0000   0.0000
     0.0000   0.0000   0.0000   0.0000   0.0000   0.0000

          k = 0.0163 0.0661 0.0000 ( 53230 PWs)   bands (ev):

   -25.9011 -25.8510 -25.8318 -25.7424 -25.7094 -25.6246 -25.6168 -25.5730
   -25.5193 -25.4388 -11.1027  -8.7671  -3.8461  -1.8492   0.3745   2.5388
     5.0482   5.5946   6.7521   7.1398   7.2991   8.0840

     occupation numbers 
     1.0000   1.0000   1.0000   1.0000   1.0000   1.0000   1.0000   1.0000
     1.0000   1.0000   1.0000   1.0000   1.0000   1.0000   0.0000   0.0000
     0.0000   0.0000   0.0000   0.0000   0.0000   0.0000

          k = 0.0163-0.0472 0.0000 ( 53237 PWs)   bands (ev):

   -25.8927 -25.8668 -25.8116 -25.7387 -25.7130 -25.6428 -25.6021 -25.5820
   -25.5081 -25.4550 -12.0032  -7.3111  -3.3840  -2.6434   1.3927   2.7017
     4.2943   5.3334   5.7137   6.2720   6.7477   8.4674

     occupation numbers 
     1.0000   1.0000   1.0000   1.0000   1.0000   1.0000   1.0000   1.0000
     1.0000   1.0000   1.0000   1.0000   1.0000   1.0000   0.0000   0.0000
     0.0000   0.0000   0.0000   0.0000   0.0000   0.0000

          k = 0.0163-0.0094 0.0000 ( 53244 PWs)   bands (ev):

   -25.8645 -25.8635 -25.7915 -25.7553 -25.7472 -25.6597 -25.5752 -25.5583
   -25.5083 -25.5014 -13.0898  -4.8711  -2.7877  -1.8368   1.4981   2.1171
     3.6507   4.3972   4.4648   4.7510   6.5289   9.0258

     occupation numbers 
     1.0000   1.0000   1.0000   1.0000   1.0000   1.0000   1.0000   1.0000
     1.0000   1.0000   1.0000   1.0000   1.0000   1.0000   0.0000   0.0000
     0.0000   0.0000   0.0000   0.0000   0.0000   0.0000

          k = 0.0490 0.0472 0.0000 ( 53230 PWs)   bands (ev):

   -25.9011 -25.8510 -25.8318 -25.7424 -25.7094 -25.6246 -25.6168 -25.5730
   -25.5193 -25.4388 -11.1027  -8.7671  -3.8461  -1.8492   0.3745   2.5388
     5.0482   5.5946   6.7521   7.1398   7.2991   8.0840

     occupation numbers 
     1.0000   1.0000   1.0000   1.0000   1.0000   1.0000   1.0000   1.0000
     1.0000   1.0000   1.0000   1.0000   1.0000   1.0000   0.0000   0.0000
     0.0000   0.0000   0.0000   0.0000   0.0000   0.0000

          k = 0.0490 0.0849 0.0000 ( 53227 PWs)   bands (ev):

   -25.9182 -25.8509 -25.8316 -25.7164 -25.6870 -25.6438 -25.6170 -25.5619
   -25.5596 -25.4195 -10.3917  -9.4506  -4.7878  -1.1505  -0.1517   4.4899
     4.7882   6.1281   6.5394   7.2905   7.7022   8.0360

     occupation numbers 
     1.0000   1.0000   1.0000   1.0000   1.0000   1.0000   1.0000   1.0000
     1.0000   1.0000   1.0000   1.0000   1.0000   1.0000   0.0000   0.0000
     0.0000   0.0000   0.0000   0.0000   0.0000   0.0000

          k = 0.0490-0.0283 0.0000 ( 53270 PWs)   bands (ev):

   -25.8856 -25.8761 -25.8203 -25.7372 -25.7204 -25.6225 -25.5942 -25.5863
   -25.5032 -25.4650 -11.6814  -8.0062  -2.9896  -2.5099   0.7876   1.7332
     4.5638   6.0077   6.5543   6.7820   7.4625   7.9693

     occupation numbers 
     1.0000   1.0000   1.0000   1.0000   1.0000   1.0000   1.0000   1.0000
     1.0000   1.0000   1.0000   1.0000   1.0000   1.0000   0.0000   0.0000
     0.0000   0.0000   0.0000   0.0000   0.0000   0.0000

          k = 0.0490 0.0094 0.0000 ( 53237 PWs)   bands (ev):

   -25.8927 -25.8668 -25.8116 -25.7387 -25.7130 -25.6428 -25.6021 -25.5820
   -25.5081 -25.4550 -12.0032  -7.3111  -3.3840  -2.6434   1.3927   2.7017
     4.2943   5.3334   5.7137   6.2720   6.7477   8.4676

     occupation numbers 
     1.0000   1.0000   1.0000   1.0000   1.0000   1.0000   1.0000   1.0000
     1.0000   1.0000   1.0000   1.0000   1.0000   1.0000   0.0000   0.0000
     0.0000   0.0000   0.0000   0.0000   0.0000   0.0000

     the Fermi energy is    -0.6507 ev

!    total energy              =    -312.34772429 Ry
     estimated scf accuracy    <       0.00000030 Ry
     smearing contrib. (-TS)   =      -0.00000000 Ry
     internal energy E=F+TS    =    -312.34772429 Ry

     convergence has been achieved in   5 iterations

     Using ACE for calculation of exact exchange

     total energy              =    -312.34943588 Ry
     Harris-Foulkes estimate   =    -312.34943613 Ry
     est. exchange err (dexx)  =       0.00171159 Ry
     - averaged Fock potential =      11.99775964 Ry
     + Fock energy (ACE)       =      -5.98979923 Ry

     EXX: now go back to refine exchange calculation

     total cpu time spent up to now is      814.9 secs

     per-process dynamical memory:   668.2 Mb

     Self-consistent Calculation

     iteration #  1     ecut=   200.00 Ry     beta= 0.70
     Davidson diagonalization with overlap

---- Real-time Memory Report at c_bands before calling an iterative solver
           708 MiB given to the printing process from OS
           652 MiB allocation reported by mallinfo(arena+hblkhd)
        169868 MiB available memory on the node where the printing process lives
------------------
     ethr =  7.51E-09,  avg # of iterations =  4.0

     total cpu time spent up to now is      817.8 secs

     total energy              =    -312.34957618 Ry
     estimated scf accuracy    <       0.00008314 Ry

     iteration #  2     ecut=   200.00 Ry     beta= 0.70
     Davidson diagonalization with overlap

---- Real-time Memory Report at c_bands before calling an iterative solver
           708 MiB given to the printing process from OS
           652 MiB allocation reported by mallinfo(arena+hblkhd)
        169868 MiB available memory on the node where the printing process lives
------------------
     ethr =  2.97E-07,  avg # of iterations =  2.0

     total cpu time spent up to now is      819.8 secs

     total energy              =    -312.34958353 Ry
     estimated scf accuracy    <       0.00001375 Ry

     iteration #  3     ecut=   200.00 Ry     beta= 0.70
     Davidson diagonalization with overlap

---- Real-time Memory Report at c_bands before calling an iterative solver
           708 MiB given to the printing process from OS
           652 MiB allocation reported by mallinfo(arena+hblkhd)
        169869 MiB available memory on the node where the printing process lives
------------------
     ethr =  4.91E-08,  avg # of iterations =  2.0

     total cpu time spent up to now is      821.9 secs

     total energy              =    -312.34958533 Ry
     estimated scf accuracy    <       0.00002919 Ry

     iteration #  4     ecut=   200.00 Ry     beta= 0.70
     Davidson diagonalization with overlap

---- Real-time Memory Report at c_bands before calling an iterative solver
           708 MiB given to the printing process from OS
           652 MiB allocation reported by mallinfo(arena+hblkhd)
        169869 MiB available memory on the node where the printing process lives
------------------
     ethr =  4.91E-08,  avg # of iterations =  2.0

     total cpu time spent up to now is      823.7 secs

     End of self-consistent calculation

          k = 0.0163 0.0283 0.0000 ( 53181 PWs)   bands (ev):

   -25.8775 -25.8648 -25.7868 -25.7658 -25.7203 -25.6507 -25.5934 -25.5665
   -25.4987 -25.4708 -12.7270  -5.7226  -3.1418  -2.5629   2.0794   2.5175
     3.4083   4.6133   5.0966   5.7909   6.2877   8.5152

     occupation numbers 
     1.0000   1.0000   1.0000   1.0000   1.0000   1.0000   1.0000   1.0000
     1.0000   1.0000   1.0000   1.0000   1.0000   1.0000   0.0000   0.0000
     0.0000   0.0000   0.0000   0.0000   0.0000   0.0000

          k = 0.0163 0.0661 0.0000 ( 53230 PWs)   bands (ev):

   -25.9007 -25.8509 -25.8318 -25.7407 -25.7072 -25.6212 -25.6137 -25.5697
   -25.5148 -25.4329 -11.1108  -8.7754  -3.8677  -1.8553   0.3695   2.5552
     5.0542   5.5977   6.7535   7.1391   7.2976   8.0846

     occupation numbers 
     1.0000   1.0000   1.0000   1.0000   1.0000   1.0000   1.0000   1.0000
     1.0000   1.0000   1.0000   1.0000   1.0000   1.0000   0.0000   0.0000
     0.0000   0.0000   0.0000   0.0000   0.0000   0.0000

          k = 0.0163-0.0472 0.0000 ( 53237 PWs)   bands (ev):

   -25.8922 -25.8665 -25.8113 -25.7375 -25.7107 -25.6397 -25.5988 -25.5789
   -25.5033 -25.4495 -12.0107  -7.3206  -3.4082  -2.6496   1.3882   2.7150
     4.2973   5.3356   5.7155   6.2727   6.7522   8.4666

     occupation numbers 
     1.0000   1.0000   1.0000   1.0000   1.0000   1.0000   1.0000   1.0000
     1.0000   1.0000   1.0000   1.0000   1.0000   1.0000   0.0000   0.0000
     0.0000   0.0000   0.0000   0.0000   0.0000   0.0000

          k = 0.0163-0.0094 0.0000 ( 53244 PWs)   bands (ev):

   -25.8637 -25.8628 -25.7905 -25.7542 -25.7459 -25.6571 -25.5711 -25.5545
   -25.5035 -25.4967 -13.0966  -4.8803  -2.8033  -1.8714   1.5097   2.1180
     3.6531   4.4018   4.4632   4.7504   6.5309   9.0380

     occupation numbers 
     1.0000   1.0000   1.0000   1.0000   1.0000   1.0000   1.0000   1.0000
     1.0000   1.0000   1.0000   1.0000   1.0000   1.0000   0.0000   0.0000
     0.0000   0.0000   0.0000   0.0000   0.0000   0.0000

          k = 0.0490 0.0472 0.0000 ( 53230 PWs)   bands (ev):

   -25.9007 -25.8509 -25.8318 -25.7407 -25.7072 -25.6212 -25.6137 -25.5697
   -25.5148 -25.4329 -11.1108  -8.7754  -3.8677  -1.8553   0.3695   2.5552
     5.0542   5.5977   6.7535   7.1391   7.2976   8.0846

     occupation numbers 
     1.0000   1.0000   1.0000   1.0000   1.0000   1.0000   1.0000   1.0000
     1.0000   1.0000   1.0000   1.0000   1.0000   1.0000   0.0000   0.0000
     0.0000   0.0000   0.0000   0.0000   0.0000   0.0000

          k = 0.0490 0.0849 0.0000 ( 53227 PWs)   bands (ev):

   -25.9179 -25.8507 -25.8316 -25.7151 -25.6841 -25.6406 -25.6140 -25.5584
   -25.5556 -25.4133 -10.4017  -9.4591  -4.7986  -1.1604  -0.1543   4.5002
     4.7946   6.1307   6.5413   7.2884   7.7023   8.0320

     occupation numbers 
     1.0000   1.0000   1.0000   1.0000   1.0000   1.0000   1.0000   1.0000
     1.0000   1.0000   1.0000   1.0000   1.0000   1.0000   0.0000   0.0000
     0.0000   0.0000   0.0000   0.0000   0.0000   0.0000

          k = 0.0490-0.0283 0.0000 ( 53270 PWs)   bands (ev):

   -25.8851 -25.8757 -25.8200 -25.7353 -25.7192 -25.6194 -25.5910 -25.5829
   -25.4979 -25.4596 -11.6899  -8.0157  -3.0172  -2.5169   0.7918   1.7503
     4.5680   6.0073   6.5542   6.7789   7.4647   7.9674

     occupation numbers 
     1.0000   1.0000   1.0000   1.0000   1.0000   1.0000   1.0000   1.0000
     1.0000   1.0000   1.0000   1.0000   1.0000   1.0000   0.0000   0.0000
     0.0000   0.0000   0.0000   0.0000   0.0000   0.0000

          k = 0.0490 0.0094 0.0000 ( 53237 PWs)   bands (ev):

   -25.8922 -25.8665 -25.8113 -25.7375 -25.7107 -25.6397 -25.5988 -25.5789
   -25.5033 -25.4495 -12.0107  -7.3206  -3.4082  -2.6496   1.3882   2.7150
     4.2973   5.3356   5.7155   6.2727   6.7522   8.4666

     occupation numbers 
     1.0000   1.0000   1.0000   1.0000   1.0000   1.0000   1.0000   1.0000
     1.0000   1.0000   1.0000   1.0000   1.0000   1.0000   0.0000   0.0000
     0.0000   0.0000   0.0000   0.0000   0.0000   0.0000

     the Fermi energy is    -0.6569 ev

!    total energy              =    -312.34959029 Ry
     estimated scf accuracy    <       0.00000014 Ry
     smearing contrib. (-TS)   =      -0.00000000 Ry
     internal energy E=F+TS    =    -312.34959029 Ry

     convergence has been achieved in   4 iterations

     Using ACE for calculation of exact exchange

     total energy              =    -312.34960692 Ry
     Harris-Foulkes estimate   =    -312.34960704 Ry
     est. exchange err (dexx)  =       0.00001663 Ry
     - averaged Fock potential =      11.97926720 Ry
     + Fock energy (ACE)       =      -5.98948460 Ry

     EXX: now go back to refine exchange calculation

     total cpu time spent up to now is     1212.4 secs

     per-process dynamical memory:   668.2 Mb

     Self-consistent Calculation

     iteration #  1     ecut=   200.00 Ry     beta= 0.70
     Davidson diagonalization with overlap

---- Real-time Memory Report at c_bands before calling an iterative solver
           708 MiB given to the printing process from OS
           652 MiB allocation reported by mallinfo(arena+hblkhd)
        169889 MiB available memory on the node where the printing process lives
------------------
     ethr =  4.91E-08,  avg # of iterations =  2.0

     total cpu time spent up to now is     1214.5 secs

     total energy              =    -312.34960850 Ry
     estimated scf accuracy    <       0.00000148 Ry

     iteration #  2     ecut=   200.00 Ry     beta= 0.70
     Davidson diagonalization with overlap

---- Real-time Memory Report at c_bands before calling an iterative solver
           708 MiB given to the printing process from OS
           652 MiB allocation reported by mallinfo(arena+hblkhd)
        169889 MiB available memory on the node where the printing process lives
------------------
     ethr =  5.28E-09,  avg # of iterations =  2.0

     total cpu time spent up to now is     1216.5 secs

     total energy              =    -312.34960829 Ry
     estimated scf accuracy    <       0.00000330 Ry

     iteration #  3     ecut=   200.00 Ry     beta= 0.70
     Davidson diagonalization with overlap

---- Real-time Memory Report at c_bands before calling an iterative solver
           708 MiB given to the printing process from OS
           652 MiB allocation reported by mallinfo(arena+hblkhd)
        169889 MiB available memory on the node where the printing process lives
------------------
     ethr =  5.28E-09,  avg # of iterations =  2.0

     total cpu time spent up to now is     1218.3 secs

     End of self-consistent calculation

          k = 0.0163 0.0283 0.0000 ( 53181 PWs)   bands (ev):

   -25.8760 -25.8633 -25.7853 -25.7641 -25.7186 -25.6489 -25.5915 -25.5647
   -25.4968 -25.4687 -12.7275  -5.7241  -3.1413  -2.5675   2.0797   2.5198
     3.4093   4.6140   5.0967   5.7907   6.2887   8.5167

     occupation numbers 
     1.0000   1.0000   1.0000   1.0000   1.0000   1.0000   1.0000   1.0000
     1.0000   1.0000   1.0000   1.0000   1.0000   1.0000   0.0000   0.0000
     0.0000   0.0000   0.0000   0.0000   0.0000   0.0000

          k = 0.0163 0.0661 0.0000 ( 53230 PWs)   bands (ev):

   -25.8992 -25.8494 -25.8303 -25.7390 -25.7054 -25.6194 -25.6119 -25.5679
   -25.5129 -25.4307 -11.1116  -8.7763  -3.8704  -1.8551   0.3697   2.5583
     5.0552   5.5983   6.7538   7.1391   7.2976   8.0851

     occupation numbers 
     1.0000   1.0000   1.0000   1.0000   1.0000   1.0000   1.0000   1.0000
     1.0000   1.0000   1.0000   1.0000   1.0000   1.0000   0.0000   0.0000
     0.0000   0.0000   0.0000   0.0000   0.0000   0.0000

          k = 0.0163-0.0472 0.0000 ( 53237 PWs)   bands (ev):

   -25.8906 -25.8650 -25.8099 -25.7359 -25.7089 -25.6379 -25.5970 -25.5771
   -25.5013 -25.4474 -12.0115  -7.3218  -3.4112  -2.6494   1.3886   2.7175
     4.2979   5.3361   5.7160   6.2730   6.7530   8.4668

     occupation numbers 
     1.0000   1.0000   1.0000   1.0000   1.0000   1.0000   1.0000   1.0000
     1.0000   1.0000   1.0000   1.0000   1.0000   1.0000   0.0000   0.0000
     0.0000   0.0000   0.0000   0.0000   0.0000   0.0000

          k = 0.0163-0.0094 0.0000 ( 53244 PWs)   bands (ev):

   -25.8621 -25.8613 -25.7890 -25.7526 -25.7443 -25.6554 -25.5693 -25.5526
   -25.5015 -25.4947 -13.0971  -4.8813  -2.8049  -1.8754   1.5116   2.1186
     3.6539   4.4033   4.4632   4.7504   6.5316   9.0399

     occupation numbers 
     1.0000   1.0000   1.0000   1.0000   1.0000   1.0000   1.0000   1.0000
     1.0000   1.0000   1.0000   1.0000   1.0000   1.0000   0.0000   0.0000
     0.0000   0.0000   0.0000   0.0000   0.0000   0.0000

          k = 0.0490 0.0472 0.0000 ( 53230 PWs)   bands (ev):

   -25.8992 -25.8494 -25.8303 -25.7390 -25.7054 -25.6194 -25.6119 -25.5679
   -25.5129 -25.4307 -11.1116  -8.7763  -3.8704  -1.8551   0.3697   2.5583
     5.0552   5.5983   6.7538   7.1391   7.2976   8.0851

     occupation numbers 
     1.0000   1.0000   1.0000   1.0000   1.0000   1.0000   1.0000   1.0000
     1.0000   1.0000   1.0000   1.0000   1.0000   1.0000   0.0000   0.0000
     0.0000   0.0000   0.0000   0.0000   0.0000   0.0000

          k = 0.0490 0.0849 0.0000 ( 53227 PWs)   bands (ev):

   -25.9164 -25.8493 -25.8301 -25.7135 -25.6823 -25.6388 -25.6122 -25.5566
   -25.5537 -25.4111 -10.4029  -9.4601  -4.7993  -1.1605  -0.1537   4.5019
     4.7959   6.1312   6.5416   7.2888   7.7026   8.0318

     occupation numbers 
     1.0000   1.0000   1.0000   1.0000   1.0000   1.0000   1.0000   1.0000
     1.0000   1.0000   1.0000   1.0000   1.0000   1.0000   0.0000   0.0000
     0.0000   0.0000   0.0000   0.0000   0.0000   0.0000

          k = 0.0490-0.0283 0.0000 ( 53270 PWs)   bands (ev):

   -25.8836 -25.8742 -25.8186 -25.7336 -25.7176 -25.6176 -25.5892 -25.5811
   -25.4958 -25.4576 -11.6908  -8.0169  -3.0200  -2.5167   0.7930   1.7531
     4.5687   6.0074   6.5543   6.7791   7.4651   7.9677

     occupation numbers 
     1.0000   1.0000   1.0000   1.0000   1.0000   1.0000   1.0000   1.0000
     1.0000   1.0000   1.0000   1.0000   1.0000   1.0000   0.0000   0.0000
     0.0000   0.0000   0.0000   0.0000   0.0000   0.0000

          k = 0.0490 0.0094 0.0000 ( 53237 PWs)   bands (ev):

   -25.8906 -25.8650 -25.8099 -25.7359 -25.7089 -25.6379 -25.5970 -25.5771
   -25.5013 -25.4474 -12.0115  -7.3218  -3.4112  -2.6494   1.3886   2.7175
     4.2979   5.3361   5.7160   6.2730   6.7530   8.4668

     occupation numbers 
     1.0000   1.0000   1.0000   1.0000   1.0000   1.0000   1.0000   1.0000
     1.0000   1.0000   1.0000   1.0000   1.0000   1.0000   0.0000   0.0000
     0.0000   0.0000   0.0000   0.0000   0.0000   0.0000

     the Fermi energy is    -0.6574 ev

!    total energy              =    -312.34960892 Ry
     estimated scf accuracy    <       0.00000012 Ry
     smearing contrib. (-TS)   =      -0.00000000 Ry
     internal energy E=F+TS    =    -312.34960892 Ry

     convergence has been achieved in   3 iterations

     Using ACE for calculation of exact exchange

!!   total energy              =    -312.34960922 Ry
     Harris-Foulkes estimate   =    -312.34960933 Ry
     est. exchange err (dexx)  =       0.00000030 Ry
     - averaged Fock potential =      11.97906416 Ry
     + Fock energy (ACE)       =      -5.98957986 Ry

     EXX self-consistency reached

     Forces acting on atoms (cartesian axes, Ry/au):

     atom    1 type  1   force =     0.00927598   -0.00535522   -0.02056901
     atom    2 type  1   force =    -0.00927598    0.00535522    0.02056901
     The non-local contrib.  to forces
     atom    1 type  1   force =     0.01423698   -0.00821941   -0.39835771
     atom    2 type  1   force =    -0.01426330    0.00823467    0.39973518
     The ionic contribution  to forces
     atom    1 type  1   force =    -0.00000003    0.00000003   18.42928954
     atom    2 type  1   force =     0.00000003   -0.00000003  -18.42928954
     The local contribution  to forces
     atom    1 type  1   force =    -0.00412204    0.00238007  -18.05930109
     atom    2 type  1   force =     0.00414757   -0.00239429   18.05505520
     The core correction contribution to forces
     atom    1 type  1   force =    -0.00085497    0.00049362    0.00635537
     atom    2 type  1   force =     0.00085560   -0.00049396   -0.00641647
     The Hubbard contrib.    to forces
     atom    1 type  1   force =     0.00000000    0.00000000    0.00000000
     atom    2 type  1   force =     0.00000000    0.00000000    0.00000000
     The SCF correction term to forces
     atom    1 type  1   force =     0.00000543   -0.00000326    0.00210077
     atom    2 type  1   force =    -0.00002650    0.00001510    0.00214052

     Total force =     0.032797     Total SCF correction =     0.002999


     Computing stress (Cartesian axis) and pressure

          total   stress  (Ry/bohr**3)                   (kbar)     P=       10.49
   0.00003539  -0.00000078   0.00001008            5.21       -0.11        1.48
  -0.00000078   0.00003448  -0.00000582           -0.11        5.07       -0.86
   0.00001008  -0.00000582   0.00014403            1.48       -0.86       21.19

     kinetic stress (kbar)  17327.82      4.29      3.93
                                4.29  17332.78     -2.27
                                3.93     -2.27  17373.59

     local   stress (kbar) -67465.34    -16.45     -9.17
                              -16.45 -67484.34      5.29
                               -9.17      5.29  62402.89

     nonloc. stress (kbar)  -6917.78      4.17      2.35
                                4.17  -6912.96     -1.36
                                2.35     -1.36  -6954.37

     hartree stress (kbar)  34157.74      7.71      4.18
                                7.71  34166.64     -2.42
                                4.18     -2.42 -27337.24

     exc-cor stress (kbar)   1968.44      0.15      0.13
                                0.15   1968.62     -0.07
                                0.13     -0.07   1961.80

     corecor stress (kbar)  -3731.72      0.01      0.02
                                0.01  -3731.71     -0.01
                                0.02     -0.01  -3732.70

     ewald   stress (kbar)  24938.49      0.00     -0.00
                                0.00  24938.49      0.00
                               -0.00      0.00 -43420.54

     hubbard stress (kbar)      0.00      0.00      0.00
                                0.00      0.00      0.00
                                0.00      0.00      0.00

     DFT-D   stress (kbar)      0.00      0.00      0.00
                                0.00      0.00      0.00
                                0.00      0.00      0.00

     XDM     stress (kbar)      0.00      0.00      0.00
                                0.00      0.00      0.00
                                0.00      0.00      0.00

     dft-nl  stress (kbar)      0.00      0.00      0.00
                                0.00      0.00      0.00
                                0.00      0.00      0.00

     TS-vdW  stress (kbar)      0.00      0.00      0.00
                                0.00      0.00      0.00
                                0.00      0.00      0.00


                                0.00      0.00      0.00
                                0.00      0.00      0.00


                                0.00      0.00      0.00

     EXX     stress (kbar)   -272.44      0.00      0.04
                                0.00   -272.44     -0.02
                                0.04     -0.02   -272.25



     Writing all to output data dir ./calc.save/

     init_run     :      2.69s CPU      2.83s WALL (       1 calls)
     electrons    :     45.77s CPU     48.61s WALL (       4 calls)
     forces       :      1.34s CPU      1.35s WALL (       1 calls)
     stress       :    164.89s CPU    172.93s WALL (       1 calls)

     Called by init_run:
     wfcinit      :      0.61s CPU      0.71s WALL (       1 calls)
     wfcinit:wfcr :      0.51s CPU      0.61s WALL (       8 calls)
     potinit      :      0.60s CPU      0.63s WALL (       1 calls)
     hinit0       :      1.36s CPU      1.37s WALL (       1 calls)

     Called by electrons:
     c_bands      :     38.20s CPU     40.54s WALL (      20 calls)
     sum_band     :      5.09s CPU      5.37s WALL (      20 calls)
     v_of_rho     :      2.46s CPU      2.50s WALL (      21 calls)
     v_h          :      0.06s CPU      0.07s WALL (      21 calls)
     v_xc         :      2.68s CPU      2.72s WALL (      23 calls)
     mix_rho      :      0.12s CPU      0.12s WALL (      20 calls)

     Called by c_bands:
     init_us_2    :      0.64s CPU      0.64s WALL (     344 calls)
     init_us_2:cp :      0.64s CPU      0.64s WALL (     344 calls)
     cegterg      :     36.38s CPU     38.70s WALL (     160 calls)

     Called by sum_band:
     sum_band:wei :      0.00s CPU      0.00s WALL (      20 calls)
     sum_band:loo :      5.00s CPU      5.27s WALL (      20 calls)
     sum_band:buf :      0.07s CPU      0.07s WALL (     160 calls)
     sum_band:ini :      0.30s CPU      0.30s WALL (     160 calls)

     Called by *egterg:
     cdiaghg      :      0.82s CPU      0.85s WALL (     663 calls)
     cegterg:over :      1.56s CPU      1.57s WALL (     535 calls)
     cegterg:upda :      1.21s CPU      1.22s WALL (     535 calls)
     cegterg:last :      1.72s CPU      1.74s WALL (     437 calls)
     cdiaghg:chol :      0.07s CPU      0.07s WALL (     663 calls)
     cdiaghg:inve :      0.03s CPU      0.03s WALL (     663 calls)
     cdiaghg:para :      0.06s CPU      0.06s WALL (    1326 calls)
     h_psi        :     30.77s CPU     33.10s WALL (     703 calls)
     g_psi        :      0.24s CPU      0.25s WALL (     535 calls)

     Called by h_psi:
     h_psi:calbec :      0.77s CPU      0.80s WALL (     703 calls)
     vloc_psi     :     28.39s CPU     30.68s WALL (     703 calls)
     add_vuspsi   :      0.64s CPU      0.65s WALL (     703 calls)

     General routines
     calbec       :      1.25s CPU      1.29s WALL (    1248 calls)
     fft          :      2.36s CPU      2.41s WALL (     230 calls)
     ffts         :      0.04s CPU      0.04s WALL (      20 calls)
     fftw         :     29.10s CPU     31.48s WALL (   25866 calls)
     fftc         :   1243.95s CPU   1337.38s WALL (  535040 calls)
     fftcw        :      5.55s CPU      6.00s WALL (    4928 calls)

     Parallel routines
     fft_scatt_xy :    143.53s CPU    145.47s WALL (  539968 calls)
     fft_scatt_yz :    362.98s CPU    429.67s WALL (  539968 calls)

     EXX routines
     exx_grid     :      0.00s CPU      0.00s WALL (       1 calls)
     exxinit      :      9.93s CPU     15.09s WALL (       4 calls)
     vexx         :   1451.87s CPU   1539.99s WALL (      32 calls)
     matcalc      :      0.41s CPU      0.42s WALL (     505 calls)
     aceupdate    :      0.02s CPU      0.02s WALL (      32 calls)
     vexxace      :      0.95s CPU      0.96s WALL (     417 calls)
     aceinit      :   1451.93s CPU   1540.05s WALL (      32 calls)

     PWSCF        :  27m57.01s CPU  29m42.00s WALL


   This run was terminated on:  17: 6:20  28Oct2022            

=------------------------------------------------------------------------------=
   JOB DONE.
=------------------------------------------------------------------------------=
