
     Program PWSCF v.7.0 starts on  4Nov2022 at 17:37:52 

     This program is part of the open-source Quantum ESPRESSO suite
     for quantum simulation of materials; please cite
         "P. Giannozzi et al., J. Phys.:Condens. Matter 21 395502 (2009);
         "P. Giannozzi et al., J. Phys.:Condens. Matter 29 465901 (2017);
         "P. Giannozzi et al., J. Chem. Phys. 152 154105 (2020);
          URL http://www.quantum-espresso.org", 
     in publications or presentations arising from this work. More details at
     http://www.quantum-espresso.org/quote

     Parallel version (MPI), running on    12 processors

     MPI processes distributed on     1 nodes
     R & G space division:  proc/nbgrp/npool/nimage =      12
     182769 MiB available memory on the printing compute node when the environment starts

     Reading input from pw.inp

     Current dimensions of program PWSCF are:
     Max number of different atomic species (ntypx) = 10
     Max number of k-points (npk) =  40000
     Max angular momentum in pseudopotentials (lmaxx) =  4
     Message from routine cell_base_init:
     DEPRECATED: use true lattice parameter, not A to a.u. conversion factor

     IMPORTANT: XC functional enforced from input :
     Exchange-correlation= HSE
                           (   1   4  12   4   0   0   0)
     EXX-fraction              =        0.25
     Any further DFT definition will be discarded
     Please, verify this is what you really want

     Message from routine setup :
     BEWARE: nonlinear core correction is not consistent with hybrid XC
     EXX: q-point mesh:     4    4    1
     EXX: setup a grid of 16 q-points centered on each k-point
     (k+q)-points:
   0.0163451   0.0283105   0.0000000         1    1
   0.0163451   0.0660579   0.0000000         2    1
   0.0163451  -0.0471842   0.0000000         3    1
   0.0163451  -0.0094368   0.0000000         4    1
   0.0490352   0.0471842   0.0000000         5    1
   0.0490352   0.0849315   0.0000000         6    1
   0.0490352  -0.0283105   0.0000000         7    1
   0.0490352   0.0094368   0.0000000         8    1
  -0.0490352  -0.0094368   0.0000000         8   -1
  -0.0490352   0.0283105   0.0000000         7   -1
  -0.0490352  -0.0849315   0.0000000         6   -1
  -0.0490352  -0.0471842   0.0000000         5   -1
  -0.0163451   0.0094368   0.0000000         4   -1
  -0.0163451   0.0471842   0.0000000         3   -1
  -0.0163451  -0.0660579   0.0000000         2   -1
  -0.0163451  -0.0283105   0.0000000         1   -1

     Subspace diagonalization in iterative solution of the eigenvalue problem:
     one sub-group per band group will be used
     scalapack distributed-memory algorithm (size of sub-group:  3*  3 procs)


     Parallelization info
     --------------------
     sticks:   dense  smooth     PW     G-vecs:    dense   smooth      PW
     Min         404     404    107                65169    65169    9051
     Max         406     406    108                65172    65172    9068
     Sum        4855    4855   1285               782049   782049  108653

     Using Slab Decomposition



     bravais-lattice index     =            0
     lattice parameter (alat)  =       1.0000  a.u.
     unit-cell volume          =    1114.2924 (a.u.)^3
     number of atoms/cell      =            2
     number of atomic types    =            1
     number of electrons       =        28.00
     number of Kohn-Sham states=           22
     kinetic-energy cutoff     =     300.0000  Ry
     charge density cutoff     =    1200.0000  Ry
     cutoff for Fock operator  =    1200.0000  Ry
     scf convergence threshold =      1.0E-06
     mixing beta               =       0.7000
     number of iterations used =            8  plain     mixing
     Exchange-correlation= HSE
                           (   1   4  12   4   0   0   0)
     EXX-fraction              =        0.25

     celldm(1)=   1.000000  celldm(2)=   0.000000  celldm(3)=   0.000000
     celldm(4)=   0.000000  celldm(5)=   0.000000  celldm(6)=   0.000000

     crystal axes: (cart. coord. in units of alat)
               a(1) = (   7.647561   0.000000   0.000000 )  
               a(2) = (  -3.823780   6.622982   0.000000 )  
               a(3) = (   0.000000   0.000000  22.000000 )  

     reciprocal axes: (cart. coord. in units 2 pi/alat)
               b(1) = (  0.130761  0.075495 -0.000000 )  
               b(2) = (  0.000000  0.150989  0.000000 )  
               b(3) = (  0.000000 -0.000000  0.045455 )  


     PseudoPot. # 1 for Ge read from file:
     ./32_Ge_14_2.2_2.3_pbe_n_v1.0.upf
     MD5 check sum: 4e069da32cf3f25d08f765fd27c22043
     Pseudo is Norm-conserving + core correction, Zval = 14.0
     Generated using ONCVPSP code by D. R. Hamann
     Using radial grid of 1558 points,  6 beta functions with: 
                l(1) =   0
                l(2) =   0
                l(3) =   1
                l(4) =   1
                l(5) =   2
                l(6) =   2

     atomic species   valence    mass     pseudopotential
        Ge            14.00    72.63000     Ge( 1.00)

     No symmetry found


                                    s                        frac. trans.

      isym =  1     identity                                     

 cryst.   s( 1) = (     1          0          0      )
                  (     0          1          0      )
                  (     0          0          1      )

 cart.    s( 1) = (  1.0000000  0.0000000  0.0000000 )
                  (  0.0000000  1.0000000  0.0000000 )
                  (  0.0000000  0.0000000  1.0000000 )


   Cartesian axes

     site n.     atom                  positions (alat units)
         1           Ge  tau(   1) = (   0.0000000   0.0000000  15.0121665  )
         2           Ge  tau(   2) = (   3.8237803   2.2076606  13.7116685  )

   Crystallographic axes

     site n.     atom                  positions (cryst. coord.)
         1           Ge  tau(   1) = (  0.0000000  0.0000000  0.6823712  )
         2           Ge  tau(   2) = (  0.6666667  0.3333333  0.6232577  )

     number of k points=     8  Fermi-Dirac smearing, width (Ry)=  0.0020
                       cart. coord. in units 2pi/alat
        k(    1) = (   0.0163451   0.0283105   0.0000000), wk =   0.2500000
        k(    2) = (   0.0163451   0.0660579   0.0000000), wk =   0.2500000
        k(    3) = (   0.0163451  -0.0471842   0.0000000), wk =   0.2500000
        k(    4) = (   0.0163451  -0.0094368   0.0000000), wk =   0.2500000
        k(    5) = (   0.0490352   0.0471842   0.0000000), wk =   0.2500000
        k(    6) = (   0.0490352   0.0849315   0.0000000), wk =   0.2500000
        k(    7) = (   0.0490352  -0.0283105   0.0000000), wk =   0.2500000
        k(    8) = (   0.0490352   0.0094368   0.0000000), wk =   0.2500000

                       cryst. coord.
        k(    1) = (   0.1250000   0.1250000   0.0000000), wk =   0.2500000
        k(    2) = (   0.1250000   0.3750000   0.0000000), wk =   0.2500000
        k(    3) = (   0.1250000  -0.3750000   0.0000000), wk =   0.2500000
        k(    4) = (   0.1250000  -0.1250000   0.0000000), wk =   0.2500000
        k(    5) = (   0.3750000   0.1250000   0.0000000), wk =   0.2500000
        k(    6) = (   0.3750000   0.3750000   0.0000000), wk =   0.2500000
        k(    7) = (   0.3750000  -0.3750000   0.0000000), wk =   0.2500000
        k(    8) = (   0.3750000  -0.1250000   0.0000000), wk =   0.2500000

     Dense  grid:   782049 G-vectors     FFT dimensions: (  90,  90, 243)

     Dynamical RAM for                 wfc:       2.74 MB

     Dynamical RAM for     wfc (w. buffer):      24.62 MB

     Dynamical RAM for                 EXX:     773.82 MB

     Dynamical RAM for           str. fact:       0.99 MB

     Dynamical RAM for           local pot:       0.00 MB

     Dynamical RAM for          nlocal pot:       4.48 MB

     Dynamical RAM for                qrad:       2.88 MB

     Dynamical RAM for          rho,v,vnew:       6.88 MB

     Dynamical RAM for               rhoin:       2.29 MB

     Dynamical RAM for            rho*nmix:      15.91 MB

     Dynamical RAM for           G-vectors:       4.23 MB

     Dynamical RAM for          h,s,v(r/c):       0.01 MB

     Dynamical RAM for          <psi|beta>:       0.01 MB

     Dynamical RAM for                 psi:       5.47 MB

     Dynamical RAM for                hpsi:       5.47 MB

     Dynamical RAM for      wfcinit/wfcrot:       5.48 MB

     Estimated static dynamical RAM per process >     828.65 MB

     Estimated max dynamical RAM per process >     855.52 MB

     Estimated total dynamical RAM >      10.03 GB

     Initial potential from superposition of free atoms

     starting charge      27.9984, renormalised to      28.0000

     negative rho (up, down):  7.385E-07 0.000E+00
     Starting wfcs are random

     total cpu time spent up to now is        5.1 secs

     per-process dynamical memory:    72.8 Mb

     Self-consistent Calculation

     iteration #  1     ecut=   300.00 Ry     beta= 0.70
     Davidson diagonalization with overlap

---- Real-time Memory Report at c_bands before calling an iterative solver
           113 MiB given to the printing process from OS
            71 MiB allocation reported by mallinfo(arena+hblkhd)
        182006 MiB available memory on the node where the printing process lives
------------------
     ethr =  1.00E-02,  avg # of iterations = 12.6

     Threshold (ethr) on eigenvalues was too large:
     Diagonalizing with lowered threshold

     Davidson diagonalization with overlap

---- Real-time Memory Report at c_bands before calling an iterative solver
           134 MiB given to the printing process from OS
            81 MiB allocation reported by mallinfo(arena+hblkhd)
        181862 MiB available memory on the node where the printing process lives
------------------
     ethr =  1.72E-04,  avg # of iterations =  4.6

     total cpu time spent up to now is       27.3 secs

     total energy              =    -321.81496360 Ry
     estimated scf accuracy    <       0.03773676 Ry

     iteration #  2     ecut=   300.00 Ry     beta= 0.70
     Davidson diagonalization with overlap

---- Real-time Memory Report at c_bands before calling an iterative solver
           150 MiB given to the printing process from OS
            96 MiB allocation reported by mallinfo(arena+hblkhd)
        181668 MiB available memory on the node where the printing process lives
------------------
     ethr =  1.35E-04,  avg # of iterations =  4.0

     total cpu time spent up to now is       31.8 secs

     total energy              =    -321.81909639 Ry
     estimated scf accuracy    <       0.00147137 Ry

     iteration #  3     ecut=   300.00 Ry     beta= 0.70
     Davidson diagonalization with overlap

---- Real-time Memory Report at c_bands before calling an iterative solver
           152 MiB given to the printing process from OS
            98 MiB allocation reported by mallinfo(arena+hblkhd)
        181645 MiB available memory on the node where the printing process lives
------------------
     ethr =  5.25E-06,  avg # of iterations =  5.5

     total cpu time spent up to now is       37.4 secs

     total energy              =    -321.81948096 Ry
     estimated scf accuracy    <       0.00032481 Ry

     iteration #  4     ecut=   300.00 Ry     beta= 0.70
     Davidson diagonalization with overlap

---- Real-time Memory Report at c_bands before calling an iterative solver
           154 MiB given to the printing process from OS
           100 MiB allocation reported by mallinfo(arena+hblkhd)
        181621 MiB available memory on the node where the printing process lives
------------------
     ethr =  1.16E-06,  avg # of iterations =  2.0

     total cpu time spent up to now is       42.0 secs

     total energy              =    -321.81954321 Ry
     estimated scf accuracy    <       0.00002021 Ry

     iteration #  5     ecut=   300.00 Ry     beta= 0.70
     Davidson diagonalization with overlap

---- Real-time Memory Report at c_bands before calling an iterative solver
           156 MiB given to the printing process from OS
           102 MiB allocation reported by mallinfo(arena+hblkhd)
        181595 MiB available memory on the node where the printing process lives
------------------
     ethr =  7.22E-08,  avg # of iterations =  2.0

     total cpu time spent up to now is       46.3 secs

     total energy              =    -321.81954507 Ry
     estimated scf accuracy    <       0.00000230 Ry

     iteration #  6     ecut=   300.00 Ry     beta= 0.70
     Davidson diagonalization with overlap

---- Real-time Memory Report at c_bands before calling an iterative solver
           158 MiB given to the printing process from OS
           104 MiB allocation reported by mallinfo(arena+hblkhd)
        181571 MiB available memory on the node where the printing process lives
------------------
     ethr =  8.20E-09,  avg # of iterations =  2.0

     total cpu time spent up to now is       50.9 secs

     total energy              =    -321.81954540 Ry
     estimated scf accuracy    <       0.00000359 Ry

     iteration #  7     ecut=   300.00 Ry     beta= 0.70
     Davidson diagonalization with overlap

---- Real-time Memory Report at c_bands before calling an iterative solver
           160 MiB given to the printing process from OS
           106 MiB allocation reported by mallinfo(arena+hblkhd)
        181548 MiB available memory on the node where the printing process lives
------------------
     ethr =  8.20E-09,  avg # of iterations =  2.0

     total cpu time spent up to now is       54.8 secs

     End of self-consistent calculation

          k = 0.0163 0.0283 0.0000 ( 97701 PWs)   bands (ev):

   -25.0250 -25.0122 -24.9553 -24.9450 -24.9023 -24.8588 -24.8150 -24.7864
   -24.7325 -24.7112 -11.1541  -4.9009  -2.5123  -1.9051   1.9068   2.3142
     3.1514   4.4213   4.9602   5.3723   6.0140   7.9554

     occupation numbers 
     1.0000   1.0000   1.0000   1.0000   1.0000   1.0000   1.0000   1.0000
     1.0000   1.0000   1.0000   1.0000   1.0000   1.0000   0.0000   0.0000
     0.0000   0.0000   0.0000   0.0000   0.0000   0.0000

          k = 0.0163 0.0661 0.0000 ( 97822 PWs)   bands (ev):

   -25.0413 -25.0026 -24.9904 -24.9237 -24.8906 -24.8393 -24.8235 -24.7981
   -24.7448 -24.6817  -9.7033  -7.6039  -3.1028  -1.4396   0.4143   2.2774
     4.7423   5.2971   6.4889   6.9622   7.0453   7.6704

     occupation numbers 
     1.0000   1.0000   1.0000   1.0000   1.0000   1.0000   1.0000   1.0000
     1.0000   1.0000   1.0000   1.0000   1.0000   1.0000   0.0000   0.0000
     0.0000   0.0000   0.0000   0.0000   0.0000   0.0000

          k = 0.0163-0.0472 0.0000 ( 97799 PWs)   bands (ev):

   -25.0338 -25.0174 -24.9762 -24.9175 -24.8971 -24.8450 -24.8201 -24.7998
   -24.7380 -24.6942 -10.5092  -6.3132  -2.6837  -2.1065   1.3028   2.4463
     4.0788   5.0006   5.4607   6.0046   6.4617   8.0981

     occupation numbers 
     1.0000   1.0000   1.0000   1.0000   1.0000   1.0000   1.0000   1.0000
     1.0000   1.0000   1.0000   1.0000   1.0000   1.0000   0.0000   0.0000
     0.0000   0.0000   0.0000   0.0000   0.0000   0.0000

          k = 0.0163-0.0094 0.0000 ( 97689 PWs)   bands (ev):

   -25.0163 -25.0114 -24.9627 -24.9269 -24.9248 -24.8650 -24.7968 -24.7761
   -24.7372 -24.7299 -11.4882  -4.1460  -2.2006  -1.1907   1.3538   1.9298
     3.3573   4.0457   4.3256   4.6223   6.2281   8.4820

     occupation numbers 
     1.0000   1.0000   1.0000   1.0000   1.0000   1.0000   1.0000   1.0000
     1.0000   1.0000   1.0000   1.0000   1.0000   1.0000   0.0000   0.0000
     0.0000   0.0000   0.0000   0.0000   0.0000   0.0000

          k = 0.0490 0.0472 0.0000 ( 97822 PWs)   bands (ev):

   -25.0413 -25.0026 -24.9904 -24.9237 -24.8906 -24.8393 -24.8235 -24.7981
   -24.7448 -24.6817  -9.7033  -7.6039  -3.1028  -1.4396   0.4143   2.2774
     4.7423   5.2971   6.4889   6.9622   7.0453   7.6703

     occupation numbers 
     1.0000   1.0000   1.0000   1.0000   1.0000   1.0000   1.0000   1.0000
     1.0000   1.0000   1.0000   1.0000   1.0000   1.0000   0.0000   0.0000
     0.0000   0.0000   0.0000   0.0000   0.0000   0.0000

          k = 0.0490 0.0849 0.0000 ( 97847 PWs)   bands (ev):

   -25.0531 -25.0087 -24.9902 -24.8975 -24.8789 -24.8431 -24.8248 -24.7861
   -24.7845 -24.6676  -9.0668  -8.2237  -3.9445  -0.8161  -0.0573   4.1390
     4.4023   5.8410   6.3033   6.8066   7.3802   7.8493

     occupation numbers 
     1.0000   1.0000   1.0000   1.0000   1.0000   1.0000   1.0000   1.0000
     1.0000   1.0000   1.0000   1.0000   1.0000   1.0000   0.0000   0.0000
     0.0000   0.0000   0.0000   0.0000   0.0000   0.0000

          k = 0.0490-0.0283 0.0000 ( 97822 PWs)   bands (ev):

   -25.0282 -25.0271 -24.9832 -24.9159 -24.8983 -24.8321 -24.8098 -24.8061
   -24.7363 -24.7007 -10.2213  -6.9327  -2.2266  -1.9920   0.6978   1.4979
     4.3436   5.8382   6.2886   6.3806   7.1890   7.5816

     occupation numbers 
     1.0000   1.0000   1.0000   1.0000   1.0000   1.0000   1.0000   1.0000
     1.0000   1.0000   1.0000   1.0000   1.0000   1.0000   0.0000   0.0000
     0.0000   0.0000   0.0000   0.0000   0.0000   0.0000

          k = 0.0490 0.0094 0.0000 ( 97799 PWs)   bands (ev):

   -25.0338 -25.0174 -24.9762 -24.9175 -24.8971 -24.8450 -24.8201 -24.7998
   -24.7380 -24.6942 -10.5092  -6.3132  -2.6837  -2.1065   1.3028   2.4463
     4.0788   5.0006   5.4607   6.0046   6.4617   8.0983

     occupation numbers 
     1.0000   1.0000   1.0000   1.0000   1.0000   1.0000   1.0000   1.0000
     1.0000   1.0000   1.0000   1.0000   1.0000   1.0000   0.0000   0.0000
     0.0000   0.0000   0.0000   0.0000   0.0000   0.0000

     the Fermi energy is    -0.4367 ev

!    total energy              =    -321.81954592 Ry
     estimated scf accuracy    <       0.00000005 Ry
     smearing contrib. (-TS)   =      -0.00000001 Ry
     internal energy E=F+TS    =    -321.81954591 Ry

     convergence has been achieved in   7 iterations

     Using ACE for calculation of exact exchange

     EXX grid:   782049 G-vectors     FFT dimensions: (  90,  90, 243)

     EXX: now go back to refine exchange calculation

     total cpu time spent up to now is     1075.1 secs

     per-process dynamical memory:  1270.0 Mb

     Self-consistent Calculation

     iteration #  1     ecut=   300.00 Ry     beta= 0.70
     Davidson diagonalization with overlap

---- Real-time Memory Report at c_bands before calling an iterative solver
          1294 MiB given to the printing process from OS
          1240 MiB allocation reported by mallinfo(arena+hblkhd)
        167932 MiB available memory on the node where the printing process lives
------------------
     ethr =  8.20E-09,  avg # of iterations =  9.2

     total cpu time spent up to now is     1086.6 secs

     total energy              =    -312.34417940 Ry
     estimated scf accuracy    <       0.01610692 Ry

     iteration #  2     ecut=   300.00 Ry     beta= 0.70
     Davidson diagonalization with overlap

---- Real-time Memory Report at c_bands before calling an iterative solver
          1294 MiB given to the printing process from OS
          1240 MiB allocation reported by mallinfo(arena+hblkhd)
        167930 MiB available memory on the node where the printing process lives
------------------
     ethr =  5.75E-05,  avg # of iterations =  2.0

     total cpu time spent up to now is     1091.5 secs

     total energy              =    -312.34767678 Ry
     estimated scf accuracy    <       0.00031278 Ry

     iteration #  3     ecut=   300.00 Ry     beta= 0.70
     Davidson diagonalization with overlap

---- Real-time Memory Report at c_bands before calling an iterative solver
          1294 MiB given to the printing process from OS
          1240 MiB allocation reported by mallinfo(arena+hblkhd)
        167932 MiB available memory on the node where the printing process lives
------------------
     ethr =  1.12E-06,  avg # of iterations =  2.0

     total cpu time spent up to now is     1095.9 secs

     total energy              =    -312.34772660 Ry
     estimated scf accuracy    <       0.00001335 Ry

     iteration #  4     ecut=   300.00 Ry     beta= 0.70
     Davidson diagonalization with overlap

---- Real-time Memory Report at c_bands before calling an iterative solver
          1294 MiB given to the printing process from OS
          1240 MiB allocation reported by mallinfo(arena+hblkhd)
        167932 MiB available memory on the node where the printing process lives
------------------
     ethr =  4.77E-08,  avg # of iterations =  2.0

     total cpu time spent up to now is     1100.9 secs

     total energy              =    -312.34772916 Ry
     estimated scf accuracy    <       0.00000533 Ry

     iteration #  5     ecut=   300.00 Ry     beta= 0.70
     Davidson diagonalization with overlap

---- Real-time Memory Report at c_bands before calling an iterative solver
          1294 MiB given to the printing process from OS
          1240 MiB allocation reported by mallinfo(arena+hblkhd)
        167932 MiB available memory on the node where the printing process lives
------------------
     ethr =  1.90E-08,  avg # of iterations =  2.0

     total cpu time spent up to now is     1105.5 secs

     total energy              =    -312.34773027 Ry
     estimated scf accuracy    <       0.00000345 Ry

     iteration #  6     ecut=   300.00 Ry     beta= 0.70
     Davidson diagonalization with overlap

---- Real-time Memory Report at c_bands before calling an iterative solver
          1294 MiB given to the printing process from OS
          1240 MiB allocation reported by mallinfo(arena+hblkhd)
        167932 MiB available memory on the node where the printing process lives
------------------
     ethr =  1.23E-08,  avg # of iterations =  1.9

     total cpu time spent up to now is     1109.7 secs

     End of self-consistent calculation

          k = 0.0163 0.0283 0.0000 ( 97701 PWs)   bands (ev):

   -25.8787 -25.8657 -25.7876 -25.7677 -25.7226 -25.6540 -25.5975 -25.5704
   -25.5039 -25.4766 -12.7204  -5.7121  -3.1366  -2.5307   2.0823   2.5077
     3.4034   4.6111   5.0971   5.7943   6.2825   8.5055

     occupation numbers 
     1.0000   1.0000   1.0000   1.0000   1.0000   1.0000   1.0000   1.0000
     1.0000   1.0000   1.0000   1.0000   1.0000   1.0000   0.0000   0.0000
     0.0000   0.0000   0.0000   0.0000   0.0000   0.0000

          k = 0.0163 0.0661 0.0000 ( 97822 PWs)   bands (ev):

   -25.9016 -25.8514 -25.8322 -25.7428 -25.7098 -25.6251 -25.6173 -25.5735
   -25.5197 -25.4392 -11.1029  -8.7673  -3.8463  -1.8493   0.3744   2.5386
     5.0481   5.5945   6.7520   7.1397   7.2990   8.0840

     occupation numbers 
     1.0000   1.0000   1.0000   1.0000   1.0000   1.0000   1.0000   1.0000
     1.0000   1.0000   1.0000   1.0000   1.0000   1.0000   0.0000   0.0000
     0.0000   0.0000   0.0000   0.0000   0.0000   0.0000

          k = 0.0163-0.0472 0.0000 ( 97799 PWs)   bands (ev):

   -25.8931 -25.8673 -25.8120 -25.7392 -25.7135 -25.6433 -25.6026 -25.5825
   -25.5086 -25.4555 -12.0034  -7.3113  -3.3842  -2.6436   1.3925   2.7015
     4.2942   5.3332   5.7136   6.2719   6.7476   8.4672

     occupation numbers 
     1.0000   1.0000   1.0000   1.0000   1.0000   1.0000   1.0000   1.0000
     1.0000   1.0000   1.0000   1.0000   1.0000   1.0000   0.0000   0.0000
     0.0000   0.0000   0.0000   0.0000   0.0000   0.0000

          k = 0.0163-0.0094 0.0000 ( 97689 PWs)   bands (ev):

   -25.8650 -25.8640 -25.7919 -25.7557 -25.7477 -25.6601 -25.5756 -25.5587
   -25.5088 -25.5019 -13.0901  -4.8713  -2.7879  -1.8370   1.4979   2.1170
     3.6505   4.3971   4.4647   4.7509   6.5288   9.0256

     occupation numbers 
     1.0000   1.0000   1.0000   1.0000   1.0000   1.0000   1.0000   1.0000
     1.0000   1.0000   1.0000   1.0000   1.0000   1.0000   0.0000   0.0000
     0.0000   0.0000   0.0000   0.0000   0.0000   0.0000

          k = 0.0490 0.0472 0.0000 ( 97822 PWs)   bands (ev):

   -25.9016 -25.8514 -25.8322 -25.7428 -25.7098 -25.6251 -25.6173 -25.5735
   -25.5197 -25.4392 -11.1029  -8.7673  -3.8463  -1.8493   0.3744   2.5386
     5.0481   5.5945   6.7520   7.1397   7.2990   8.0839

     occupation numbers 
     1.0000   1.0000   1.0000   1.0000   1.0000   1.0000   1.0000   1.0000
     1.0000   1.0000   1.0000   1.0000   1.0000   1.0000   0.0000   0.0000
     0.0000   0.0000   0.0000   0.0000   0.0000   0.0000

          k = 0.0490 0.0849 0.0000 ( 97847 PWs)   bands (ev):

   -25.9186 -25.8513 -25.8321 -25.7168 -25.6874 -25.6443 -25.6175 -25.5623
   -25.5601 -25.4200 -10.3919  -9.4508  -4.7880  -1.1507  -0.1519   4.4898
     4.7880   6.1280   6.5393   7.2903   7.7021   8.0362

     occupation numbers 
     1.0000   1.0000   1.0000   1.0000   1.0000   1.0000   1.0000   1.0000
     1.0000   1.0000   1.0000   1.0000   1.0000   1.0000   0.0000   0.0000
     0.0000   0.0000   0.0000   0.0000   0.0000   0.0000

          k = 0.0490-0.0283 0.0000 ( 97822 PWs)   bands (ev):

   -25.8860 -25.8765 -25.8207 -25.7377 -25.7208 -25.6229 -25.5946 -25.5868
   -25.5036 -25.4655 -11.6816  -8.0064  -2.9898  -2.5101   0.7874   1.7330
     4.5637   6.0076   6.5542   6.7818   7.4624   7.9692

     occupation numbers 
     1.0000   1.0000   1.0000   1.0000   1.0000   1.0000   1.0000   1.0000
     1.0000   1.0000   1.0000   1.0000   1.0000   1.0000   0.0000   0.0000
     0.0000   0.0000   0.0000   0.0000   0.0000   0.0000

          k = 0.0490 0.0094 0.0000 ( 97799 PWs)   bands (ev):

   -25.8931 -25.8673 -25.8120 -25.7392 -25.7135 -25.6433 -25.6026 -25.5825
   -25.5086 -25.4555 -12.0034  -7.3113  -3.3842  -2.6436   1.3925   2.7015
     4.2942   5.3332   5.7136   6.2719   6.7476   8.4675

     occupation numbers 
     1.0000   1.0000   1.0000   1.0000   1.0000   1.0000   1.0000   1.0000
     1.0000   1.0000   1.0000   1.0000   1.0000   1.0000   0.0000   0.0000
     0.0000   0.0000   0.0000   0.0000   0.0000   0.0000

     the Fermi energy is    -0.6509 ev

!    total energy              =    -312.34773088 Ry
     estimated scf accuracy    <       0.00000004 Ry
     smearing contrib. (-TS)   =      -0.00000000 Ry
     internal energy E=F+TS    =    -312.34773088 Ry

     convergence has been achieved in   6 iterations

     Using ACE for calculation of exact exchange

     total energy              =    -312.34944259 Ry
     Harris-Foulkes estimate   =    -312.34944262 Ry
     est. exchange err (dexx)  =       0.00171171 Ry
     - averaged Fock potential =      11.99777931 Ry
     + Fock energy (ACE)       =      -5.98980984 Ry

     EXX: now go back to refine exchange calculation

     total cpu time spent up to now is     2128.7 secs

     per-process dynamical memory:  1270.0 Mb

     Self-consistent Calculation

     iteration #  1     ecut=   300.00 Ry     beta= 0.70
     Davidson diagonalization with overlap

---- Real-time Memory Report at c_bands before calling an iterative solver
          1294 MiB given to the printing process from OS
          1240 MiB allocation reported by mallinfo(arena+hblkhd)
        167915 MiB available memory on the node where the printing process lives
------------------
     ethr =  1.23E-08,  avg # of iterations =  4.0

     total cpu time spent up to now is     2135.6 secs

     total energy              =    -312.34958448 Ry
     estimated scf accuracy    <       0.00008077 Ry

     iteration #  2     ecut=   300.00 Ry     beta= 0.70
     Davidson diagonalization with overlap

---- Real-time Memory Report at c_bands before calling an iterative solver
          1294 MiB given to the printing process from OS
          1240 MiB allocation reported by mallinfo(arena+hblkhd)
        167916 MiB available memory on the node where the printing process lives
------------------
     ethr =  2.88E-07,  avg # of iterations =  2.0

     total cpu time spent up to now is     2140.4 secs

     total energy              =    -312.34959621 Ry
     estimated scf accuracy    <       0.00000270 Ry

     iteration #  3     ecut=   300.00 Ry     beta= 0.70
     Davidson diagonalization with overlap

---- Real-time Memory Report at c_bands before calling an iterative solver
          1294 MiB given to the printing process from OS
          1240 MiB allocation reported by mallinfo(arena+hblkhd)
        167915 MiB available memory on the node where the printing process lives
------------------
     ethr =  9.65E-09,  avg # of iterations =  2.0

     total cpu time spent up to now is     2145.4 secs

     total energy              =    -312.34959630 Ry
     estimated scf accuracy    <       0.00000316 Ry

     iteration #  4     ecut=   300.00 Ry     beta= 0.70
     Davidson diagonalization with overlap

---- Real-time Memory Report at c_bands before calling an iterative solver
          1294 MiB given to the printing process from OS
          1240 MiB allocation reported by mallinfo(arena+hblkhd)
        167914 MiB available memory on the node where the printing process lives
------------------
     ethr =  9.65E-09,  avg # of iterations =  2.0

     total cpu time spent up to now is     2149.6 secs

     End of self-consistent calculation

          k = 0.0163 0.0283 0.0000 ( 97701 PWs)   bands (ev):

   -25.8777 -25.8650 -25.7870 -25.7659 -25.7205 -25.6508 -25.5935 -25.5667
   -25.4989 -25.4710 -12.7272  -5.7227  -3.1419  -2.5631   2.0794   2.5172
     3.4082   4.6133   5.0967   5.7908   6.2877   8.5151

     occupation numbers 
     1.0000   1.0000   1.0000   1.0000   1.0000   1.0000   1.0000   1.0000
     1.0000   1.0000   1.0000   1.0000   1.0000   1.0000   0.0000   0.0000
     0.0000   0.0000   0.0000   0.0000   0.0000   0.0000

          k = 0.0163 0.0661 0.0000 ( 97822 PWs)   bands (ev):

   -25.9009 -25.8510 -25.8320 -25.7409 -25.7074 -25.6214 -25.6139 -25.5698
   -25.5150 -25.4331 -11.1110  -8.7756  -3.8679  -1.8553   0.3694   2.5550
     5.0542   5.5977   6.7535   7.1392   7.2976   8.0845

     occupation numbers 
     1.0000   1.0000   1.0000   1.0000   1.0000   1.0000   1.0000   1.0000
     1.0000   1.0000   1.0000   1.0000   1.0000   1.0000   0.0000   0.0000
     0.0000   0.0000   0.0000   0.0000   0.0000   0.0000

          k = 0.0163-0.0472 0.0000 ( 97799 PWs)   bands (ev):

   -25.8924 -25.8667 -25.8115 -25.7377 -25.7109 -25.6399 -25.5990 -25.5790
   -25.5034 -25.4496 -12.0109  -7.3207  -3.4084  -2.6497   1.3882   2.7148
     4.2972   5.3356   5.7155   6.2727   6.7521   8.4666

     occupation numbers 
     1.0000   1.0000   1.0000   1.0000   1.0000   1.0000   1.0000   1.0000
     1.0000   1.0000   1.0000   1.0000   1.0000   1.0000   0.0000   0.0000
     0.0000   0.0000   0.0000   0.0000   0.0000   0.0000

          k = 0.0163-0.0094 0.0000 ( 97689 PWs)   bands (ev):

   -25.8639 -25.8630 -25.7907 -25.7544 -25.7461 -25.6573 -25.5713 -25.5547
   -25.5037 -25.4969 -13.0968  -4.8803  -2.8035  -1.8716   1.5095   2.1180
     3.6530   4.4016   4.4632   4.7504   6.5309   9.0379

     occupation numbers 
     1.0000   1.0000   1.0000   1.0000   1.0000   1.0000   1.0000   1.0000
     1.0000   1.0000   1.0000   1.0000   1.0000   1.0000   0.0000   0.0000
     0.0000   0.0000   0.0000   0.0000   0.0000   0.0000

          k = 0.0490 0.0472 0.0000 ( 97822 PWs)   bands (ev):

   -25.9009 -25.8510 -25.8320 -25.7409 -25.7074 -25.6214 -25.6139 -25.5698
   -25.5150 -25.4331 -11.1110  -8.7756  -3.8679  -1.8553   0.3694   2.5550
     5.0542   5.5977   6.7535   7.1392   7.2976   8.0845

     occupation numbers 
     1.0000   1.0000   1.0000   1.0000   1.0000   1.0000   1.0000   1.0000
     1.0000   1.0000   1.0000   1.0000   1.0000   1.0000   0.0000   0.0000
     0.0000   0.0000   0.0000   0.0000   0.0000   0.0000

          k = 0.0490 0.0849 0.0000 ( 97847 PWs)   bands (ev):

   -25.9181 -25.8509 -25.8317 -25.7153 -25.6843 -25.6408 -25.6142 -25.5585
   -25.5557 -25.4135 -10.4019  -9.4593  -4.7988  -1.1604  -0.1544   4.5001
     4.7944   6.1307   6.5412   7.2882   7.7023   8.0321

     occupation numbers 
     1.0000   1.0000   1.0000   1.0000   1.0000   1.0000   1.0000   1.0000
     1.0000   1.0000   1.0000   1.0000   1.0000   1.0000   0.0000   0.0000
     0.0000   0.0000   0.0000   0.0000   0.0000   0.0000

          k = 0.0490-0.0283 0.0000 ( 97822 PWs)   bands (ev):

   -25.8853 -25.8759 -25.8202 -25.7355 -25.7194 -25.6196 -25.5912 -25.5830
   -25.4980 -25.4598 -11.6901  -8.0159  -3.0174  -2.5169   0.7917   1.7501
     4.5680   6.0073   6.5542   6.7788   7.4647   7.9673

     occupation numbers 
     1.0000   1.0000   1.0000   1.0000   1.0000   1.0000   1.0000   1.0000
     1.0000   1.0000   1.0000   1.0000   1.0000   1.0000   0.0000   0.0000
     0.0000   0.0000   0.0000   0.0000   0.0000   0.0000

          k = 0.0490 0.0094 0.0000 ( 97799 PWs)   bands (ev):

   -25.8924 -25.8667 -25.8115 -25.7377 -25.7109 -25.6399 -25.5990 -25.5790
   -25.5034 -25.4496 -12.0109  -7.3207  -3.4084  -2.6497   1.3882   2.7148
     4.2972   5.3356   5.7155   6.2727   6.7521   8.4667

     occupation numbers 
     1.0000   1.0000   1.0000   1.0000   1.0000   1.0000   1.0000   1.0000
     1.0000   1.0000   1.0000   1.0000   1.0000   1.0000   0.0000   0.0000
     0.0000   0.0000   0.0000   0.0000   0.0000   0.0000

     the Fermi energy is    -0.6571 ev

!    total energy              =    -312.34959672 Ry
     estimated scf accuracy    <       0.00000065 Ry
     smearing contrib. (-TS)   =      -0.00000000 Ry
     internal energy E=F+TS    =    -312.34959672 Ry

     convergence has been achieved in   4 iterations

     Using ACE for calculation of exact exchange

     total energy              =    -312.34961336 Ry
     Harris-Foulkes estimate   =    -312.34961394 Ry
     est. exchange err (dexx)  =       0.00001664 Ry
     - averaged Fock potential =      11.97928082 Ry
     + Fock energy (ACE)       =      -5.98948762 Ry

     EXX: now go back to refine exchange calculation

     total cpu time spent up to now is     3168.5 secs

     per-process dynamical memory:  1270.0 Mb

     Self-consistent Calculation

     iteration #  1     ecut=   300.00 Ry     beta= 0.70
     Davidson diagonalization with overlap

---- Real-time Memory Report at c_bands before calling an iterative solver
          1294 MiB given to the printing process from OS
          1240 MiB allocation reported by mallinfo(arena+hblkhd)
        167928 MiB available memory on the node where the printing process lives
------------------
     ethr =  9.65E-09,  avg # of iterations =  2.0

     total cpu time spent up to now is     3173.5 secs

     total energy              =    -312.34961187 Ry
     estimated scf accuracy    <       0.00000689 Ry

     iteration #  2     ecut=   300.00 Ry     beta= 0.70
     Davidson diagonalization with overlap

---- Real-time Memory Report at c_bands before calling an iterative solver
          1294 MiB given to the printing process from OS
          1240 MiB allocation reported by mallinfo(arena+hblkhd)
        167927 MiB available memory on the node where the printing process lives
------------------
     ethr =  2.46E-08,  avg # of iterations =  2.1

     total cpu time spent up to now is     3178.5 secs

     total energy              =    -312.34961124 Ry
     estimated scf accuracy    <       0.00002727 Ry

     iteration #  3     ecut=   300.00 Ry     beta= 0.70
     Davidson diagonalization with overlap

---- Real-time Memory Report at c_bands before calling an iterative solver
          1294 MiB given to the printing process from OS
          1240 MiB allocation reported by mallinfo(arena+hblkhd)
        167927 MiB available memory on the node where the printing process lives
------------------
     ethr =  2.46E-08,  avg # of iterations =  2.0

     total cpu time spent up to now is     3183.1 secs

     End of self-consistent calculation

          k = 0.0163 0.0283 0.0000 ( 97701 PWs)   bands (ev):

   -25.8760 -25.8634 -25.7854 -25.7642 -25.7186 -25.6490 -25.5915 -25.5647
   -25.4968 -25.4688 -12.7276  -5.7241  -3.1413  -2.5676   2.0797   2.5197
     3.4093   4.6140   5.0967   5.7907   6.2887   8.5166

     occupation numbers 
     1.0000   1.0000   1.0000   1.0000   1.0000   1.0000   1.0000   1.0000
     1.0000   1.0000   1.0000   1.0000   1.0000   1.0000   0.0000   0.0000
     0.0000   0.0000   0.0000   0.0000   0.0000   0.0000

          k = 0.0163 0.0661 0.0000 ( 97822 PWs)   bands (ev):

   -25.8992 -25.8494 -25.8304 -25.7390 -25.7055 -25.6195 -25.6119 -25.5679
   -25.5129 -25.4308 -11.1117  -8.7764  -3.8705  -1.8551   0.3697   2.5583
     5.0552   5.5983   6.7539   7.1391   7.2976   8.0851

     occupation numbers 
     1.0000   1.0000   1.0000   1.0000   1.0000   1.0000   1.0000   1.0000
     1.0000   1.0000   1.0000   1.0000   1.0000   1.0000   0.0000   0.0000
     0.0000   0.0000   0.0000   0.0000   0.0000   0.0000

          k = 0.0163-0.0472 0.0000 ( 97799 PWs)   bands (ev):

   -25.8907 -25.8650 -25.8099 -25.7359 -25.7090 -25.6380 -25.5970 -25.5771
   -25.5013 -25.4474 -12.0115  -7.3218  -3.4112  -2.6494   1.3886   2.7175
     4.2979   5.3361   5.7160   6.2730   6.7530   8.4668

     occupation numbers 
     1.0000   1.0000   1.0000   1.0000   1.0000   1.0000   1.0000   1.0000
     1.0000   1.0000   1.0000   1.0000   1.0000   1.0000   0.0000   0.0000
     0.0000   0.0000   0.0000   0.0000   0.0000   0.0000

          k = 0.0163-0.0094 0.0000 ( 97689 PWs)   bands (ev):

   -25.8622 -25.8613 -25.7890 -25.7526 -25.7444 -25.6555 -25.5693 -25.5527
   -25.5016 -25.4947 -13.0972  -4.8813  -2.8050  -1.8755   1.5116   2.1186
     3.6538   4.4032   4.4633   4.7504   6.5316   9.0398

     occupation numbers 
     1.0000   1.0000   1.0000   1.0000   1.0000   1.0000   1.0000   1.0000
     1.0000   1.0000   1.0000   1.0000   1.0000   1.0000   0.0000   0.0000
     0.0000   0.0000   0.0000   0.0000   0.0000   0.0000

          k = 0.0490 0.0472 0.0000 ( 97822 PWs)   bands (ev):

   -25.8992 -25.8494 -25.8304 -25.7390 -25.7055 -25.6195 -25.6119 -25.5679
   -25.5129 -25.4308 -11.1117  -8.7764  -3.8705  -1.8551   0.3697   2.5583
     5.0552   5.5983   6.7539   7.1391   7.2976   8.0851

     occupation numbers 
     1.0000   1.0000   1.0000   1.0000   1.0000   1.0000   1.0000   1.0000
     1.0000   1.0000   1.0000   1.0000   1.0000   1.0000   0.0000   0.0000
     0.0000   0.0000   0.0000   0.0000   0.0000   0.0000

          k = 0.0490 0.0849 0.0000 ( 97847 PWs)   bands (ev):

   -25.9164 -25.8493 -25.8302 -25.7135 -25.6824 -25.6388 -25.6123 -25.5566
   -25.5537 -25.4112 -10.4029  -9.4602  -4.7994  -1.1605  -0.1537   4.5018
     4.7959   6.1312   6.5416   7.2887   7.7026   8.0318

     occupation numbers 
     1.0000   1.0000   1.0000   1.0000   1.0000   1.0000   1.0000   1.0000
     1.0000   1.0000   1.0000   1.0000   1.0000   1.0000   0.0000   0.0000
     0.0000   0.0000   0.0000   0.0000   0.0000   0.0000

          k = 0.0490-0.0283 0.0000 ( 97822 PWs)   bands (ev):

   -25.8837 -25.8742 -25.8186 -25.7336 -25.7177 -25.6177 -25.5892 -25.5811
   -25.4958 -25.4576 -11.6908  -8.0170  -3.0200  -2.5168   0.7930   1.7531
     4.5687   6.0074   6.5544   6.7790   7.4651   7.9677

     occupation numbers 
     1.0000   1.0000   1.0000   1.0000   1.0000   1.0000   1.0000   1.0000
     1.0000   1.0000   1.0000   1.0000   1.0000   1.0000   0.0000   0.0000
     0.0000   0.0000   0.0000   0.0000   0.0000   0.0000

          k = 0.0490 0.0094 0.0000 ( 97799 PWs)   bands (ev):

   -25.8907 -25.8650 -25.8099 -25.7359 -25.7090 -25.6380 -25.5970 -25.5771
   -25.5013 -25.4474 -12.0115  -7.3218  -3.4112  -2.6494   1.3886   2.7175
     4.2979   5.3361   5.7160   6.2730   6.7530   8.4668

     occupation numbers 
     1.0000   1.0000   1.0000   1.0000   1.0000   1.0000   1.0000   1.0000
     1.0000   1.0000   1.0000   1.0000   1.0000   1.0000   0.0000   0.0000
     0.0000   0.0000   0.0000   0.0000   0.0000   0.0000

     the Fermi energy is    -0.6574 ev

!    total energy              =    -312.34961574 Ry
     estimated scf accuracy    <       0.00000002 Ry
     smearing contrib. (-TS)   =      -0.00000000 Ry
     internal energy E=F+TS    =    -312.34961574 Ry

     convergence has been achieved in   3 iterations

     Using ACE for calculation of exact exchange

!!   total energy              =    -312.34961606 Ry
     Harris-Foulkes estimate   =    -312.34961607 Ry
     est. exchange err (dexx)  =       0.00000032 Ry
     - averaged Fock potential =      11.97906999 Ry
     + Fock energy (ACE)       =      -5.98958269 Ry

     EXX self-consistency reached

     Forces acting on atoms (cartesian axes, Ry/au):

     atom    1 type  1   force =     0.00928093   -0.00535835   -0.02056487
     atom    2 type  1   force =    -0.00928093    0.00535835    0.02056487
     The non-local contrib.  to forces
     atom    1 type  1   force =     0.01426331   -0.00823497   -0.39893534
     atom    2 type  1   force =    -0.01426867    0.00823793    0.39894827
     The ionic contribution  to forces
     atom    1 type  1   force =    -0.00000003    0.00000003   18.42928954
     atom    2 type  1   force =     0.00000003   -0.00000003  -18.42928954
     The local contribution  to forces
     atom    1 type  1   force =    -0.00417534    0.00241075  -18.05759362
     atom    2 type  1   force =     0.00417486   -0.00241043   18.05738696
     The core correction contribution to forces
     atom    1 type  1   force =    -0.00085654    0.00049453    0.00637624
     atom    2 type  1   force =     0.00085635   -0.00049441   -0.00637561
     The Hubbard contrib.    to forces
     atom    1 type  1   force =     0.00000000    0.00000000    0.00000000
     atom    2 type  1   force =     0.00000000    0.00000000    0.00000000
     The SCF correction term to forces
     atom    1 type  1   force =     0.00004273   -0.00002481    0.00075289
     atom    2 type  1   force =    -0.00005027    0.00002916    0.00034935

     Total force =     0.032795     Total SCF correction =     0.000833


     Computing stress (Cartesian axis) and pressure

          total   stress  (Ry/bohr**3)                   (kbar)     P=       10.49
   0.00003538  -0.00000077   0.00001008            5.20       -0.11        1.48
  -0.00000077   0.00003448  -0.00000582           -0.11        5.07       -0.86
   0.00001008  -0.00000582   0.00014411            1.48       -0.86       21.20

     kinetic stress (kbar)  17327.82      4.29      3.93
                                4.29  17332.78     -2.27
                                3.93     -2.27  17373.59

     local   stress (kbar) -67465.36    -16.45     -9.17
                              -16.45 -67484.36      5.29
                               -9.17      5.29  62402.92

     nonloc. stress (kbar)  -6917.78      4.17      2.35
                                4.17  -6912.96     -1.36
                                2.35     -1.36  -6954.36

     hartree stress (kbar)  34157.76      7.71      4.18
                                7.71  34166.66     -2.42
                                4.18     -2.42 -27337.26

     exc-cor stress (kbar)   1968.44      0.15      0.13
                                0.15   1968.62     -0.07
                                0.13     -0.07   1961.80

     corecor stress (kbar)  -3731.72      0.01      0.02
                                0.01  -3731.71     -0.01
                                0.02     -0.01  -3732.70

     ewald   stress (kbar)  24938.49      0.00     -0.00
                                0.00  24938.49      0.00
                               -0.00      0.00 -43420.54

     hubbard stress (kbar)      0.00      0.00      0.00
                                0.00      0.00      0.00
                                0.00      0.00      0.00

     DFT-D   stress (kbar)      0.00      0.00      0.00
                                0.00      0.00      0.00
                                0.00      0.00      0.00

     XDM     stress (kbar)      0.00      0.00      0.00
                                0.00      0.00      0.00
                                0.00      0.00      0.00

     dft-nl  stress (kbar)      0.00      0.00      0.00
                                0.00      0.00      0.00
                                0.00      0.00      0.00

     TS-vdW  stress (kbar)      0.00      0.00      0.00
                                0.00      0.00      0.00
                                0.00      0.00      0.00


                                0.00      0.00      0.00
                                0.00      0.00      0.00


                                0.00      0.00      0.00

     EXX     stress (kbar)   -272.44      0.00      0.04
                                0.00   -272.44     -0.02
                                0.04     -0.02   -272.25



     Writing all to output data dir ./calc.save/

     init_run     :      4.95s CPU      5.07s WALL (       1 calls)
     electrons    :    116.80s CPU    119.95s WALL (       4 calls)
     forces       :      2.43s CPU      2.44s WALL (       1 calls)
     stress       :    438.84s CPU    451.28s WALL (       1 calls)

     Called by init_run:
     wfcinit      :      1.46s CPU      1.52s WALL (       1 calls)
     wfcinit:wfcr :      1.28s CPU      1.34s WALL (       8 calls)
     potinit      :      1.11s CPU      1.14s WALL (       1 calls)
     hinit0       :      2.13s CPU      2.15s WALL (       1 calls)

     Called by electrons:
     c_bands      :     96.91s CPU     99.32s WALL (      21 calls)
     sum_band     :     14.61s CPU     15.02s WALL (      21 calls)
     v_of_rho     :      5.19s CPU      5.29s WALL (      22 calls)
     v_h          :      0.17s CPU      0.17s WALL (      22 calls)
     v_xc         :      5.58s CPU      5.67s WALL (      24 calls)
     mix_rho      :      0.33s CPU      0.34s WALL (      21 calls)

     Called by c_bands:
     init_us_2    :      1.25s CPU      1.26s WALL (     360 calls)
     init_us_2:cp :      1.25s CPU      1.26s WALL (     360 calls)
     cegterg      :     93.29s CPU     95.67s WALL (     168 calls)

     Called by sum_band:
     sum_band:wei :      0.00s CPU      0.00s WALL (      21 calls)
     sum_band:loo :     14.34s CPU     14.74s WALL (      21 calls)
     sum_band:buf :      0.16s CPU      0.16s WALL (     168 calls)
     sum_band:ini :      0.58s CPU      0.59s WALL (     168 calls)

     Called by *egterg:
     cdiaghg      :      0.84s CPU      0.87s WALL (     696 calls)
     cegterg:over :      2.90s CPU      2.92s WALL (     560 calls)
     cegterg:upda :      3.02s CPU      3.04s WALL (     560 calls)
     cegterg:last :      3.83s CPU      3.86s WALL (     462 calls)
     cdiaghg:chol :      0.07s CPU      0.08s WALL (     696 calls)
     cdiaghg:inve :      0.03s CPU      0.04s WALL (     696 calls)
     cdiaghg:para :      0.06s CPU      0.06s WALL (    1392 calls)
     h_psi        :     82.30s CPU     84.64s WALL (     736 calls)
     g_psi        :      0.48s CPU      0.48s WALL (     560 calls)

     Called by h_psi:
     h_psi:calbec :      1.49s CPU      1.53s WALL (     736 calls)
     vloc_psi     :     77.18s CPU     79.45s WALL (     736 calls)
     add_vuspsi   :      1.26s CPU      1.28s WALL (     736 calls)

     General routines
     calbec       :      2.39s CPU      2.43s WALL (    1306 calls)
     fft          :      4.54s CPU      4.64s WALL (     240 calls)
     ffts         :      0.10s CPU      0.11s WALL (      21 calls)
     fftw         :     76.55s CPU     78.72s WALL (   27164 calls)
     fftc         :   3451.56s CPU   3621.03s WALL (  535040 calls)
     fftcw        :     15.39s CPU     15.93s WALL (    4928 calls)

     Parallel routines
     fft_scatt_xy :    483.25s CPU    486.49s WALL (  539968 calls)
     fft_scatt_yz :    892.76s CPU   1043.93s WALL (  539968 calls)

     EXX routines
     exx_grid     :      0.00s CPU      0.00s WALL (       1 calls)
     exxinit      :     21.01s CPU     30.40s WALL (       4 calls)
     vexx         :   3886.02s CPU   4045.84s WALL (      32 calls)
     matcalc      :      0.80s CPU      0.81s WALL (     530 calls)
     aceupdate    :      0.04s CPU      0.04s WALL (      32 calls)
     vexxace      :      2.18s CPU      2.19s WALL (     442 calls)
     aceinit      :   3886.13s CPU   4045.95s WALL (      32 calls)

     PWSCF        :      1h14m CPU      1h17m WALL


   This run was terminated on:  18:55:29   4Nov2022            

=------------------------------------------------------------------------------=
   JOB DONE.
=------------------------------------------------------------------------------=
